/*--------------------------------*- C++ -*----------------------------------*\
| =========                 |                                                 |
| \\      /  F ield         | OpenFOAM: The Open Source CFD Toolbox           |
|  \\    /   O peration     | Version:  2412                                  |
|   \\  /    A nd           | Website:  www.openfoam.com                      |
|    \\/     M anipulation  |                                                 |
\*---------------------------------------------------------------------------*/
FoamFile
{
    version     2.0;
    format      ascii;
    arch        "LSB;label=32;scalar=64";
    class       volVectorField;
    location    "1.7";
    object      U;
}
// * * * * * * * * * * * * * * * * * * * * * * * * * * * * * * * * * * * * * //

dimensions      [0 1 -1 0 0 0 0];

internalField   nonuniform List<vector> 
15000
(
(0.000875111 0.000875111 0.0106091)
(0.000633221 0.000796422 0.0105463)
(0.000429331 0.000779521 0.0104968)
(0.000252145 0.000759207 0.0104633)
(8.25989e-05 0.000750584 0.0104468)
(-8.25989e-05 0.000750584 0.0104468)
(-0.000252145 0.000759207 0.0104633)
(-0.000429331 0.000779521 0.0104968)
(-0.000633221 0.000796422 0.0105463)
(-0.000875111 0.000875111 0.0106091)
(0.000796422 0.000633221 0.0105463)
(0.000592021 0.000592021 0.0104726)
(0.000407672 0.00056858 0.0104174)
(0.000238934 0.000552317 0.0103817)
(7.85077e-05 0.000544854 0.0103644)
(-7.85077e-05 0.000544854 0.0103644)
(-0.000238934 0.000552317 0.0103817)
(-0.000407672 0.00056858 0.0104174)
(-0.000592021 0.000592021 0.0104726)
(-0.000796422 0.000633221 0.0105463)
(0.000779521 0.000429331 0.0104968)
(0.00056858 0.000407672 0.0104174)
(0.000389567 0.000389567 0.0103609)
(0.000227188 0.000376458 0.0103253)
(7.45633e-05 0.000370019 0.0103082)
(-7.45633e-05 0.000370019 0.0103082)
(-0.000227188 0.000376458 0.0103253)
(-0.000389567 0.000389567 0.0103609)
(-0.00056858 0.000407672 0.0104174)
(-0.000779521 0.000429331 0.0104968)
(0.000759207 0.000252145 0.0104633)
(0.000552317 0.000238934 0.0103817)
(0.000376458 0.000227188 0.0103253)
(0.00021872 0.00021872 0.0102903)
(7.16958e-05 0.000214507 0.0102736)
(-7.16958e-05 0.000214507 0.0102736)
(-0.00021872 0.00021872 0.0102903)
(-0.000376458 0.000227188 0.0103253)
(-0.000552317 0.000238934 0.0103817)
(-0.000759207 0.000252145 0.0104633)
(0.000750584 8.25988e-05 0.0104468)
(0.000544854 7.85077e-05 0.0103644)
(0.000370019 7.45633e-05 0.0103082)
(0.000214507 7.16958e-05 0.0102736)
(7.02594e-05 7.02594e-05 0.0102571)
(-7.02593e-05 7.02594e-05 0.0102571)
(-0.000214507 7.16958e-05 0.0102736)
(-0.000370019 7.45634e-05 0.0103082)
(-0.000544854 7.85078e-05 0.0103644)
(-0.000750584 8.25989e-05 0.0104468)
(0.000750584 -8.25989e-05 0.0104468)
(0.000544854 -7.85078e-05 0.0103644)
(0.000370019 -7.45633e-05 0.0103082)
(0.000214507 -7.16958e-05 0.0102736)
(7.02594e-05 -7.02593e-05 0.0102571)
(-7.02594e-05 -7.02593e-05 0.0102571)
(-0.000214507 -7.16958e-05 0.0102736)
(-0.000370019 -7.45633e-05 0.0103082)
(-0.000544854 -7.85077e-05 0.0103644)
(-0.000750584 -8.25989e-05 0.0104468)
(0.000759207 -0.000252145 0.0104633)
(0.000552317 -0.000238934 0.0103817)
(0.000376458 -0.000227188 0.0103253)
(0.00021872 -0.00021872 0.0102903)
(7.16958e-05 -0.000214507 0.0102736)
(-7.16958e-05 -0.000214507 0.0102736)
(-0.00021872 -0.00021872 0.0102903)
(-0.000376458 -0.000227188 0.0103253)
(-0.000552317 -0.000238934 0.0103817)
(-0.000759207 -0.000252145 0.0104633)
(0.000779521 -0.000429331 0.0104968)
(0.00056858 -0.000407672 0.0104174)
(0.000389567 -0.000389567 0.0103609)
(0.000227188 -0.000376458 0.0103253)
(7.45634e-05 -0.000370019 0.0103082)
(-7.45633e-05 -0.000370019 0.0103082)
(-0.000227188 -0.000376458 0.0103253)
(-0.000389567 -0.000389567 0.0103609)
(-0.00056858 -0.000407672 0.0104174)
(-0.000779521 -0.000429331 0.0104968)
(0.000796422 -0.000633221 0.0105463)
(0.000592021 -0.000592021 0.0104726)
(0.000407672 -0.00056858 0.0104174)
(0.000238934 -0.000552317 0.0103817)
(7.85078e-05 -0.000544854 0.0103644)
(-7.85077e-05 -0.000544854 0.0103644)
(-0.000238934 -0.000552317 0.0103817)
(-0.000407672 -0.00056858 0.0104174)
(-0.000592021 -0.000592021 0.0104726)
(-0.000796422 -0.000633221 0.0105463)
(0.000875111 -0.000875111 0.0106091)
(0.000633221 -0.000796422 0.0105463)
(0.000429331 -0.000779521 0.0104968)
(0.000252145 -0.000759207 0.0104633)
(8.25989e-05 -0.000750584 0.0104468)
(-8.25989e-05 -0.000750584 0.0104468)
(-0.000252145 -0.000759207 0.0104633)
(-0.000429331 -0.000779521 0.0104968)
(-0.000633221 -0.000796422 0.0105463)
(-0.000875111 -0.000875111 0.0106091)
(0.000316712 0.000316713 0.0116978)
(0.000254464 0.000334245 0.0115793)
(0.000185472 0.000356766 0.0114871)
(0.000113914 0.000368696 0.0114245)
(3.80619e-05 0.000375636 0.0113937)
(-3.80619e-05 0.000375636 0.0113937)
(-0.000113914 0.000368696 0.0114245)
(-0.000185472 0.000356766 0.0114871)
(-0.000254464 0.000334245 0.0115793)
(-0.000316713 0.000316713 0.0116978)
(0.000334245 0.000254464 0.0115793)
(0.000274682 0.000274682 0.0114391)
(0.000203884 0.000291884 0.0113337)
(0.00012559 0.000302618 0.0112646)
(4.22917e-05 0.000308358 0.0112307)
(-4.22917e-05 0.000308358 0.0112307)
(-0.00012559 0.000302618 0.0112646)
(-0.000203883 0.000291884 0.0113337)
(-0.000274682 0.000274682 0.0114391)
(-0.000334245 0.000254464 0.0115793)
(0.000356766 0.000185472 0.0114871)
(0.000291884 0.000203884 0.0113337)
(0.000217061 0.000217061 0.0112225)
(0.000133565 0.000225094 0.0111509)
(4.50295e-05 0.000229115 0.011116)
(-4.50295e-05 0.000229115 0.011116)
(-0.000133565 0.000225094 0.0111509)
(-0.000217061 0.000217061 0.0112225)
(-0.000291884 0.000203883 0.0113337)
(-0.000356766 0.000185472 0.0114871)
(0.000368696 0.000113914 0.0114245)
(0.000302618 0.00012559 0.0112646)
(0.000225093 0.000133565 0.0111509)
(0.00013842 0.00013842 0.0110785)
(4.6673e-05 0.000140795 0.0110434)
(-4.66729e-05 0.000140795 0.0110434)
(-0.00013842 0.00013842 0.0110785)
(-0.000225093 0.000133565 0.0111509)
(-0.000302618 0.00012559 0.0112646)
(-0.000368696 0.000113914 0.0114245)
(0.000375636 3.80619e-05 0.0113937)
(0.000308358 4.22917e-05 0.0112307)
(0.000229115 4.50295e-05 0.011116)
(0.000140795 4.6673e-05 0.0110434)
(4.74629e-05 4.74629e-05 0.0110083)
(-4.74629e-05 4.74629e-05 0.0110083)
(-0.000140795 4.6673e-05 0.0110434)
(-0.000229115 4.50296e-05 0.011116)
(-0.000308358 4.22917e-05 0.0112307)
(-0.000375636 3.80619e-05 0.0113937)
(0.000375636 -3.80619e-05 0.0113937)
(0.000308358 -4.22917e-05 0.0112307)
(0.000229115 -4.50295e-05 0.011116)
(0.000140795 -4.66729e-05 0.0110434)
(4.74629e-05 -4.74629e-05 0.0110083)
(-4.74629e-05 -4.74629e-05 0.0110083)
(-0.000140795 -4.6673e-05 0.0110434)
(-0.000229115 -4.50295e-05 0.011116)
(-0.000308358 -4.22916e-05 0.0112307)
(-0.000375636 -3.80619e-05 0.0113937)
(0.000368696 -0.000113914 0.0114245)
(0.000302618 -0.00012559 0.0112646)
(0.000225094 -0.000133565 0.0111509)
(0.00013842 -0.00013842 0.0110785)
(4.6673e-05 -0.000140795 0.0110434)
(-4.6673e-05 -0.000140795 0.0110434)
(-0.00013842 -0.00013842 0.0110785)
(-0.000225093 -0.000133565 0.0111509)
(-0.000302618 -0.00012559 0.0112646)
(-0.000368696 -0.000113914 0.0114245)
(0.000356766 -0.000185472 0.0114871)
(0.000291884 -0.000203883 0.0113337)
(0.000217061 -0.000217061 0.0112225)
(0.000133565 -0.000225094 0.0111509)
(4.50296e-05 -0.000229115 0.011116)
(-4.50295e-05 -0.000229115 0.011116)
(-0.000133565 -0.000225093 0.0111509)
(-0.000217061 -0.000217061 0.0112225)
(-0.000291885 -0.000203884 0.0113337)
(-0.000356766 -0.000185472 0.0114871)
(0.000334245 -0.000254464 0.0115793)
(0.000274682 -0.000274682 0.0114391)
(0.000203883 -0.000291884 0.0113337)
(0.00012559 -0.000302618 0.0112646)
(4.22918e-05 -0.000308358 0.0112307)
(-4.22917e-05 -0.000308358 0.0112307)
(-0.00012559 -0.000302618 0.0112646)
(-0.000203884 -0.000291885 0.0113337)
(-0.000274682 -0.000274682 0.0114391)
(-0.000334245 -0.000254464 0.0115793)
(0.000316713 -0.000316712 0.0116978)
(0.000254464 -0.000334245 0.0115793)
(0.000185472 -0.000356766 0.0114871)
(0.000113914 -0.000368696 0.0114245)
(3.80619e-05 -0.000375636 0.0113937)
(-3.80619e-05 -0.000375636 0.0113937)
(-0.000113914 -0.000368696 0.0114245)
(-0.000185472 -0.000356766 0.0114871)
(-0.000254464 -0.000334245 0.0115793)
(-0.000316713 -0.000316712 0.0116978)
(0.000155426 0.000155426 0.011593)
(0.00012831 0.000167583 0.0115687)
(9.64546e-05 0.000180803 0.0115414)
(6.00506e-05 0.000188307 0.0115207)
(2.02134e-05 0.000192421 0.0115101)
(-2.02134e-05 0.000192421 0.0115101)
(-6.00506e-05 0.000188307 0.0115207)
(-9.64545e-05 0.000180803 0.0115414)
(-0.00012831 0.000167583 0.0115687)
(-0.000155426 0.000155426 0.011593)
(0.000167583 0.000128311 0.0115687)
(0.000142726 0.000142726 0.0115235)
(0.000108477 0.000153645 0.0114847)
(6.76356e-05 0.000160471 0.0114578)
(2.29068e-05 0.000164025 0.0114441)
(-2.29068e-05 0.000164025 0.0114441)
(-6.76356e-05 0.000160471 0.0114578)
(-0.000108477 0.000153645 0.0114847)
(-0.000142726 0.000142726 0.0115235)
(-0.000167583 0.00012831 0.0115687)
(0.000180803 9.64545e-05 0.0115414)
(0.000153645 0.000108477 0.0114847)
(0.000116796 0.000116796 0.0114394)
(7.27585e-05 0.000121955 0.0114084)
(2.46674e-05 0.000124546 0.0113929)
(-2.46674e-05 0.000124546 0.0113929)
(-7.27585e-05 0.000121955 0.0114084)
(-0.000116796 0.000116796 0.0114394)
(-0.000153645 0.000108477 0.0114847)
(-0.000180803 9.64545e-05 0.0115414)
(0.000188307 6.00506e-05 0.0115207)
(0.000160471 6.76356e-05 0.0114578)
(0.000121955 7.27585e-05 0.0114084)
(7.59512e-05 7.59512e-05 0.0113751)
(2.57657e-05 7.75551e-05 0.0113582)
(-2.57657e-05 7.75551e-05 0.0113582)
(-7.59511e-05 7.59512e-05 0.0113751)
(-0.000121955 7.27585e-05 0.0114084)
(-0.000160471 6.76356e-05 0.0114578)
(-0.000188307 6.00506e-05 0.0115207)
(0.000192421 2.02135e-05 0.0115101)
(0.000164025 2.29068e-05 0.0114441)
(0.000124546 2.46674e-05 0.0113929)
(7.75551e-05 2.57657e-05 0.0113582)
(2.63175e-05 2.63175e-05 0.0113408)
(-2.63174e-05 2.63175e-05 0.0113408)
(-7.7555e-05 2.57657e-05 0.0113582)
(-0.000124546 2.46674e-05 0.0113929)
(-0.000164025 2.29068e-05 0.0114441)
(-0.000192421 2.02135e-05 0.0115101)
(0.000192421 -2.02135e-05 0.0115101)
(0.000164025 -2.29068e-05 0.0114441)
(0.000124546 -2.46674e-05 0.0113929)
(7.75551e-05 -2.57657e-05 0.0113582)
(2.63174e-05 -2.63174e-05 0.0113408)
(-2.63174e-05 -2.63174e-05 0.0113408)
(-7.7555e-05 -2.57657e-05 0.0113582)
(-0.000124546 -2.46674e-05 0.0113929)
(-0.000164025 -2.29067e-05 0.0114441)
(-0.000192421 -2.02135e-05 0.0115101)
(0.000188307 -6.00506e-05 0.0115207)
(0.000160471 -6.76355e-05 0.0114578)
(0.000121955 -7.27585e-05 0.0114084)
(7.59512e-05 -7.59511e-05 0.0113751)
(2.57657e-05 -7.7555e-05 0.0113582)
(-2.57657e-05 -7.7555e-05 0.0113582)
(-7.59511e-05 -7.59511e-05 0.0113751)
(-0.000121955 -7.27585e-05 0.0114084)
(-0.000160471 -6.76356e-05 0.0114578)
(-0.000188307 -6.00507e-05 0.0115207)
(0.000180803 -9.64545e-05 0.0115414)
(0.000153645 -0.000108477 0.0114847)
(0.000116796 -0.000116796 0.0114394)
(7.27585e-05 -0.000121955 0.0114084)
(2.46674e-05 -0.000124546 0.0113929)
(-2.46674e-05 -0.000124546 0.0113929)
(-7.27585e-05 -0.000121955 0.0114084)
(-0.000116796 -0.000116796 0.0114394)
(-0.000153645 -0.000108477 0.0114847)
(-0.000180803 -9.64546e-05 0.0115414)
(0.000167583 -0.00012831 0.0115687)
(0.000142726 -0.000142726 0.0115235)
(0.000108477 -0.000153645 0.0114847)
(6.76356e-05 -0.000160471 0.0114578)
(2.29068e-05 -0.000164025 0.0114441)
(-2.29068e-05 -0.000164025 0.0114441)
(-6.76356e-05 -0.000160471 0.0114578)
(-0.000108477 -0.000153645 0.0114847)
(-0.000142726 -0.000142726 0.0115235)
(-0.000167583 -0.00012831 0.0115687)
(0.000155426 -0.000155426 0.011593)
(0.00012831 -0.000167583 0.0115687)
(9.64546e-05 -0.000180803 0.0115414)
(6.00506e-05 -0.000188307 0.0115207)
(2.02135e-05 -0.000192421 0.0115101)
(-2.02135e-05 -0.000192421 0.0115101)
(-6.00507e-05 -0.000188307 0.0115207)
(-9.64546e-05 -0.000180803 0.0115414)
(-0.00012831 -0.000167583 0.0115687)
(-0.000155426 -0.000155426 0.011593)
(5.34646e-05 5.34647e-05 0.0116176)
(4.64117e-05 6.21239e-05 0.0116169)
(3.65828e-05 7.0188e-05 0.0116069)
(2.33762e-05 7.52261e-05 0.0115978)
(7.96986e-06 7.79064e-05 0.011593)
(-7.96985e-06 7.79064e-05 0.011593)
(-2.33762e-05 7.52261e-05 0.0115978)
(-3.65827e-05 7.0188e-05 0.0116069)
(-4.64117e-05 6.21239e-05 0.0116169)
(-5.34647e-05 5.34646e-05 0.0116176)
(6.21239e-05 4.64117e-05 0.0116169)
(5.59427e-05 5.59428e-05 0.0115996)
(4.4406e-05 6.33269e-05 0.0115817)
(2.84295e-05 6.8189e-05 0.0115687)
(9.75426e-06 7.07043e-05 0.011562)
(-9.75426e-06 7.07043e-05 0.011562)
(-2.84295e-05 6.8189e-05 0.0115687)
(-4.4406e-05 6.33269e-05 0.0115817)
(-5.59427e-05 5.59427e-05 0.0115996)
(-6.21238e-05 4.64116e-05 0.0116169)
(7.0188e-05 3.65828e-05 0.0116069)
(6.33269e-05 4.4406e-05 0.0115817)
(5.02514e-05 5.02514e-05 0.0115598)
(3.21284e-05 5.40698e-05 0.0115444)
(1.10298e-05 5.59982e-05 0.0115365)
(-1.10298e-05 5.59982e-05 0.0115365)
(-3.21284e-05 5.40698e-05 0.0115444)
(-5.02514e-05 5.02514e-05 0.0115598)
(-6.33269e-05 4.4406e-05 0.0115817)
(-7.01879e-05 3.65827e-05 0.0116069)
(7.52261e-05 2.33762e-05 0.0115978)
(6.8189e-05 2.84295e-05 0.0115687)
(5.40698e-05 3.21284e-05 0.0115444)
(3.45432e-05 3.45432e-05 0.0115275)
(1.18607e-05 3.57575e-05 0.0115188)
(-1.18606e-05 3.57575e-05 0.0115188)
(-3.45432e-05 3.45432e-05 0.0115275)
(-5.40698e-05 3.21284e-05 0.0115444)
(-6.8189e-05 2.84296e-05 0.0115687)
(-7.52261e-05 2.33762e-05 0.0115978)
(7.79064e-05 7.96985e-06 0.011593)
(7.07043e-05 9.75425e-06 0.011562)
(5.59982e-05 1.10298e-05 0.0115365)
(3.57575e-05 1.18607e-05 0.0115188)
(1.22769e-05 1.22769e-05 0.0115098)
(-1.22768e-05 1.22769e-05 0.0115098)
(-3.57574e-05 1.18607e-05 0.0115188)
(-5.59982e-05 1.10298e-05 0.0115365)
(-7.07043e-05 9.7543e-06 0.011562)
(-7.79064e-05 7.96989e-06 0.011593)
(7.79064e-05 -7.96985e-06 0.011593)
(7.07043e-05 -9.75426e-06 0.011562)
(5.59982e-05 -1.10298e-05 0.0115365)
(3.57575e-05 -1.18606e-05 0.0115188)
(1.22769e-05 -1.22768e-05 0.0115098)
(-1.22769e-05 -1.22769e-05 0.0115098)
(-3.57574e-05 -1.18607e-05 0.0115188)
(-5.59982e-05 -1.10298e-05 0.0115365)
(-7.07043e-05 -9.75425e-06 0.011562)
(-7.79064e-05 -7.96986e-06 0.011593)
(7.52261e-05 -2.33762e-05 0.0115978)
(6.8189e-05 -2.84295e-05 0.0115687)
(5.40698e-05 -3.21284e-05 0.0115444)
(3.45432e-05 -3.45432e-05 0.0115275)
(1.18607e-05 -3.57574e-05 0.0115188)
(-1.18607e-05 -3.57574e-05 0.0115188)
(-3.45432e-05 -3.45432e-05 0.0115275)
(-5.40698e-05 -3.21284e-05 0.0115444)
(-6.8189e-05 -2.84296e-05 0.0115687)
(-7.52261e-05 -2.33763e-05 0.0115978)
(7.0188e-05 -3.65827e-05 0.0116069)
(6.33268e-05 -4.4406e-05 0.0115817)
(5.02514e-05 -5.02514e-05 0.0115598)
(3.21284e-05 -5.40698e-05 0.0115444)
(1.10298e-05 -5.59982e-05 0.0115365)
(-1.10298e-05 -5.59982e-05 0.0115365)
(-3.21284e-05 -5.40698e-05 0.0115444)
(-5.02514e-05 -5.02514e-05 0.0115598)
(-6.33269e-05 -4.44061e-05 0.0115817)
(-7.01879e-05 -3.65827e-05 0.0116069)
(6.21238e-05 -4.64117e-05 0.0116169)
(5.59427e-05 -5.59427e-05 0.0115996)
(4.44061e-05 -6.33268e-05 0.0115817)
(2.84295e-05 -6.8189e-05 0.0115687)
(9.75428e-06 -7.07043e-05 0.011562)
(-9.75425e-06 -7.07043e-05 0.011562)
(-2.84296e-05 -6.8189e-05 0.0115687)
(-4.44061e-05 -6.33269e-05 0.0115817)
(-5.59427e-05 -5.59427e-05 0.0115996)
(-6.21238e-05 -4.64116e-05 0.0116169)
(5.34647e-05 -5.34647e-05 0.0116176)
(4.64117e-05 -6.21238e-05 0.0116169)
(3.65827e-05 -7.01879e-05 0.0116069)
(2.33762e-05 -7.5226e-05 0.0115978)
(7.96986e-06 -7.79064e-05 0.011593)
(-7.96985e-06 -7.79064e-05 0.011593)
(-2.33763e-05 -7.52261e-05 0.0115978)
(-3.65828e-05 -7.0188e-05 0.0116069)
(-4.64116e-05 -6.21238e-05 0.0116169)
(-5.34647e-05 -5.34646e-05 0.0116176)
(1.77085e-05 1.77085e-05 0.011613)
(1.57101e-05 2.13185e-05 0.0116243)
(1.26915e-05 2.46965e-05 0.0116236)
(8.20993e-06 2.69468e-05 0.0116211)
(2.81777e-06 2.81559e-05 0.0116195)
(-2.8178e-06 2.81559e-05 0.0116195)
(-8.20993e-06 2.69469e-05 0.0116211)
(-1.26914e-05 2.46966e-05 0.0116236)
(-1.57102e-05 2.13187e-05 0.0116243)
(-1.77085e-05 1.77086e-05 0.011613)
(2.13185e-05 1.57102e-05 0.0116243)
(1.98663e-05 1.98663e-05 0.0116217)
(1.62064e-05 2.32387e-05 0.0116153)
(1.05514e-05 2.55751e-05 0.0116102)
(3.6514e-06 2.68053e-05 0.0116074)
(-3.65138e-06 2.68054e-05 0.0116074)
(-1.05513e-05 2.55752e-05 0.0116102)
(-1.62063e-05 2.32387e-05 0.0116153)
(-1.98664e-05 1.98664e-05 0.0116217)
(-2.13186e-05 1.57102e-05 0.0116243)
(2.46965e-05 1.26915e-05 0.0116236)
(2.32386e-05 1.62064e-05 0.0116153)
(1.90196e-05 1.90196e-05 0.0116064)
(1.23968e-05 2.09585e-05 0.0115998)
(4.29702e-06 2.19621e-05 0.0115963)
(-4.29698e-06 2.19622e-05 0.0115963)
(-1.23967e-05 2.09586e-05 0.0115998)
(-1.90195e-05 1.90195e-05 0.0116064)
(-2.32387e-05 1.62064e-05 0.0116153)
(-2.46966e-05 1.26915e-05 0.0116236)
(2.69468e-05 8.20991e-06 0.0116211)
(2.55751e-05 1.05514e-05 0.0116102)
(2.09585e-05 1.23968e-05 0.0115998)
(1.367e-05 1.367e-05 0.0115922)
(4.74204e-06 1.43271e-05 0.0115882)
(-4.74199e-06 1.43271e-05 0.0115882)
(-1.367e-05 1.367e-05 0.0115922)
(-2.09585e-05 1.23967e-05 0.0115998)
(-2.55751e-05 1.05513e-05 0.0116102)
(-2.69469e-05 8.20992e-06 0.0116211)
(2.81559e-05 2.81777e-06 0.0116195)
(2.68053e-05 3.65141e-06 0.0116074)
(2.19621e-05 4.29703e-06 0.0115963)
(1.43271e-05 4.74205e-06 0.0115882)
(4.97092e-06 4.97093e-06 0.011584)
(-4.97088e-06 4.97092e-06 0.011584)
(-1.4327e-05 4.74202e-06 0.0115882)
(-2.19621e-05 4.29701e-06 0.0115963)
(-2.68053e-05 3.65139e-06 0.0116074)
(-2.81559e-05 2.8178e-06 0.0116195)
(2.81559e-05 -2.81779e-06 0.0116195)
(2.68054e-05 -3.65136e-06 0.0116074)
(2.19621e-05 -4.29697e-06 0.0115963)
(1.43271e-05 -4.74198e-06 0.0115882)
(4.97091e-06 -4.97088e-06 0.011584)
(-4.9709e-06 -4.97089e-06 0.011584)
(-1.4327e-05 -4.74201e-06 0.0115882)
(-2.19621e-05 -4.297e-06 0.0115963)
(-2.68053e-05 -3.6514e-06 0.0116074)
(-2.81559e-05 -2.81779e-06 0.0116195)
(2.69469e-05 -8.20994e-06 0.0116211)
(2.55752e-05 -1.05513e-05 0.0116102)
(2.09585e-05 -1.23967e-05 0.0115998)
(1.367e-05 -1.367e-05 0.0115922)
(4.74201e-06 -1.4327e-05 0.0115882)
(-4.74202e-06 -1.4327e-05 0.0115882)
(-1.367e-05 -1.367e-05 0.0115922)
(-2.09585e-05 -1.23967e-05 0.0115998)
(-2.55751e-05 -1.05514e-05 0.0116102)
(-2.69469e-05 -8.20996e-06 0.0116211)
(2.46966e-05 -1.26915e-05 0.0116236)
(2.32388e-05 -1.62063e-05 0.0116153)
(1.90195e-05 -1.90195e-05 0.0116064)
(1.23967e-05 -2.09585e-05 0.0115998)
(4.297e-06 -2.19621e-05 0.0115963)
(-4.29701e-06 -2.19621e-05 0.0115963)
(-1.23967e-05 -2.09585e-05 0.0115998)
(-1.90195e-05 -1.90195e-05 0.0116064)
(-2.32387e-05 -1.62064e-05 0.0116153)
(-2.46965e-05 -1.26915e-05 0.0116236)
(2.13187e-05 -1.57102e-05 0.0116243)
(1.98664e-05 -1.98665e-05 0.0116217)
(1.62064e-05 -2.32387e-05 0.0116153)
(1.05513e-05 -2.55751e-05 0.0116102)
(3.65139e-06 -2.68053e-05 0.0116074)
(-3.65139e-06 -2.68053e-05 0.0116074)
(-1.05513e-05 -2.55751e-05 0.0116102)
(-1.62064e-05 -2.32387e-05 0.0116153)
(-1.98664e-05 -1.98664e-05 0.0116217)
(-2.13185e-05 -1.57101e-05 0.0116243)
(1.77085e-05 -1.77085e-05 0.011613)
(1.57102e-05 -2.13186e-05 0.0116243)
(1.26915e-05 -2.46966e-05 0.0116236)
(8.20997e-06 -2.69469e-05 0.0116211)
(2.81782e-06 -2.81559e-05 0.0116195)
(-2.81779e-06 -2.81559e-05 0.0116195)
(-8.20996e-06 -2.69469e-05 0.0116211)
(-1.26915e-05 -2.46965e-05 0.0116236)
(-1.57101e-05 -2.13185e-05 0.0116243)
(-1.77085e-05 -1.77085e-05 0.011613)
(6.20746e-06 6.2075e-06 0.0116074)
(5.56709e-06 7.56623e-06 0.0116226)
(4.55899e-06 8.84634e-06 0.0116254)
(2.9671e-06 9.72147e-06 0.0116254)
(1.02227e-06 1.01928e-05 0.0116251)
(-1.0223e-06 1.01929e-05 0.0116251)
(-2.96708e-06 9.72149e-06 0.0116254)
(-4.55896e-06 8.84639e-06 0.0116254)
(-5.56708e-06 7.56626e-06 0.0116226)
(-6.20743e-06 6.20753e-06 0.0116074)
(7.56623e-06 5.5671e-06 0.0116226)
(7.18054e-06 7.18054e-06 0.0116257)
(5.94498e-06 8.51687e-06 0.011624)
(3.90493e-06 9.46675e-06 0.0116222)
(1.3577e-06 9.9719e-06 0.0116213)
(-1.35771e-06 9.97192e-06 0.0116213)
(-3.90493e-06 9.46678e-06 0.0116222)
(-5.94498e-06 8.51691e-06 0.011624)
(-7.18048e-06 7.18056e-06 0.0116257)
(-7.56619e-06 5.56712e-06 0.0116226)
(8.84635e-06 4.55899e-06 0.0116254)
(8.51688e-06 5.94498e-06 0.011624)
(7.09182e-06 7.09181e-06 0.0116209)
(4.6733e-06 7.90614e-06 0.0116184)
(1.62898e-06 8.33402e-06 0.011617)
(-1.62895e-06 8.33404e-06 0.011617)
(-4.67327e-06 7.90618e-06 0.0116184)
(-7.09179e-06 7.09185e-06 0.0116209)
(-8.51685e-06 5.94502e-06 0.011624)
(-8.84636e-06 4.55895e-06 0.0116254)
(9.72148e-06 2.96711e-06 0.0116254)
(9.46675e-06 3.90494e-06 0.0116222)
(7.90614e-06 4.67331e-06 0.0116184)
(5.22062e-06 5.22062e-06 0.0116154)
(1.8223e-06 5.50788e-06 0.0116138)
(-1.82226e-06 5.50788e-06 0.0116138)
(-5.22059e-06 5.22063e-06 0.0116154)
(-7.90613e-06 4.6733e-06 0.0116184)
(-9.46675e-06 3.90494e-06 0.0116222)
(-9.72149e-06 2.96708e-06 0.0116254)
(1.01929e-05 1.02228e-06 0.0116251)
(9.9719e-06 1.35771e-06 0.0116213)
(8.33401e-06 1.62898e-06 0.011617)
(5.50788e-06 1.8223e-06 0.0116138)
(1.92354e-06 1.92354e-06 0.0116121)
(-1.9235e-06 1.92354e-06 0.0116121)
(-5.50784e-06 1.82229e-06 0.0116138)
(-8.33399e-06 1.62898e-06 0.011617)
(-9.97189e-06 1.35772e-06 0.0116213)
(-1.01929e-05 1.0223e-06 0.0116251)
(1.01929e-05 -1.02232e-06 0.0116251)
(9.97192e-06 -1.3577e-06 0.0116213)
(8.33402e-06 -1.62894e-06 0.011617)
(5.50788e-06 -1.82225e-06 0.0116138)
(1.92354e-06 -1.9235e-06 0.0116121)
(-1.92351e-06 -1.9235e-06 0.0116121)
(-5.50785e-06 -1.82227e-06 0.0116138)
(-8.334e-06 -1.62895e-06 0.011617)
(-9.97189e-06 -1.3577e-06 0.0116213)
(-1.01929e-05 -1.0223e-06 0.0116251)
(9.72152e-06 -2.9671e-06 0.0116254)
(9.4668e-06 -3.9049e-06 0.0116222)
(7.90616e-06 -4.67326e-06 0.0116184)
(5.22062e-06 -5.22058e-06 0.0116154)
(1.82229e-06 -5.50784e-06 0.0116138)
(-1.82227e-06 -5.50784e-06 0.0116138)
(-5.22059e-06 -5.22059e-06 0.0116154)
(-7.90613e-06 -4.67327e-06 0.0116184)
(-9.46677e-06 -3.90494e-06 0.0116222)
(-9.7215e-06 -2.96712e-06 0.0116254)
(8.84642e-06 -4.55892e-06 0.0116254)
(8.51693e-06 -5.94498e-06 0.011624)
(7.09182e-06 -7.09178e-06 0.0116209)
(4.67329e-06 -7.90613e-06 0.0116184)
(1.62897e-06 -8.334e-06 0.011617)
(-1.62895e-06 -8.334e-06 0.011617)
(-4.67327e-06 -7.90613e-06 0.0116184)
(-7.09182e-06 -7.09181e-06 0.0116209)
(-8.51692e-06 -5.94506e-06 0.011624)
(-8.84636e-06 -4.55897e-06 0.0116254)
(7.56628e-06 -5.56707e-06 0.0116226)
(7.18056e-06 -7.18054e-06 0.0116257)
(5.945e-06 -8.51688e-06 0.011624)
(3.90491e-06 -9.46676e-06 0.0116222)
(1.35772e-06 -9.97189e-06 0.0116213)
(-1.35769e-06 -9.9719e-06 0.0116213)
(-3.90492e-06 -9.46677e-06 0.0116222)
(-5.94506e-06 -8.51693e-06 0.011624)
(-7.18055e-06 -7.18056e-06 0.0116257)
(-7.56618e-06 -5.56706e-06 0.0116226)
(6.20752e-06 -6.20747e-06 0.0116074)
(5.56711e-06 -7.56622e-06 0.0116226)
(4.55898e-06 -8.84637e-06 0.0116254)
(2.9671e-06 -9.72148e-06 0.0116254)
(1.0223e-06 -1.01928e-05 0.0116251)
(-1.0223e-06 -1.01929e-05 0.0116251)
(-2.96712e-06 -9.72151e-06 0.0116254)
(-4.55899e-06 -8.84638e-06 0.0116254)
(-5.56706e-06 -7.56619e-06 0.0116226)
(-6.20747e-06 -6.20744e-06 0.0116074)
(2.17333e-06 2.17329e-06 0.0116055)
(1.97098e-06 2.69008e-06 0.0116219)
(1.63384e-06 3.17623e-06 0.0116258)
(1.06993e-06 3.51409e-06 0.0116266)
(3.7004e-07 3.69597e-06 0.0116267)
(-3.70084e-07 3.69598e-06 0.0116267)
(-1.06997e-06 3.51414e-06 0.0116266)
(-1.63385e-06 3.17636e-06 0.0116258)
(-1.971e-06 2.69029e-06 0.0116219)
(-2.17331e-06 2.17343e-06 0.0116055)
(2.69007e-06 1.97099e-06 0.0116219)
(2.59082e-06 2.5908e-06 0.0116269)
(2.17162e-06 3.11186e-06 0.0116269)
(1.43717e-06 3.48793e-06 0.0116263)
(5.01687e-07 3.68888e-06 0.011626)
(-5.01662e-07 3.68891e-06 0.011626)
(-1.43709e-06 3.48799e-06 0.0116263)
(-2.17156e-06 3.11199e-06 0.0116269)
(-2.59088e-06 2.59098e-06 0.0116269)
(-2.6902e-06 1.97107e-06 0.0116219)
(3.17615e-06 1.63385e-06 0.0116258)
(3.11184e-06 2.17161e-06 0.0116269)
(2.6261e-06 2.62608e-06 0.0116258)
(1.74518e-06 2.9543e-06 0.0116249)
(6.10944e-07 3.12813e-06 0.0116244)
(-6.1089e-07 3.12814e-06 0.0116244)
(-1.7451e-06 2.95432e-06 0.0116249)
(-2.62599e-06 2.62606e-06 0.0116258)
(-3.11192e-06 2.17162e-06 0.0116269)
(-3.17633e-06 1.63385e-06 0.0116258)
(3.51404e-06 1.06994e-06 0.0116266)
(3.48791e-06 1.4372e-06 0.0116263)
(2.95431e-06 1.74519e-06 0.0116249)
(1.96857e-06 1.96857e-06 0.0116238)
(6.90284e-07 2.08688e-06 0.0116232)
(-6.90231e-07 2.08688e-06 0.0116232)
(-1.96852e-06 1.96856e-06 0.0116238)
(-2.95425e-06 1.74514e-06 0.0116249)
(-3.48794e-06 1.43711e-06 0.0116263)
(-3.51413e-06 1.06996e-06 0.0116266)
(3.69596e-06 3.70036e-07 0.0116267)
(3.68887e-06 5.01709e-07 0.011626)
(3.12812e-06 6.1095e-07 0.0116244)
(2.08687e-06 6.9029e-07 0.0116232)
(7.32237e-07 7.32243e-07 0.0116225)
(-7.32194e-07 7.32235e-07 0.0116225)
(-2.08684e-06 6.90268e-07 0.0116232)
(-3.12809e-06 6.10918e-07 0.0116244)
(-3.68887e-06 5.01664e-07 0.011626)
(-3.69598e-06 3.70079e-07 0.0116267)
(3.69597e-06 -3.70096e-07 0.0116267)
(3.6889e-06 -5.01663e-07 0.011626)
(3.12813e-06 -6.10889e-07 0.0116244)
(2.08687e-06 -6.90228e-07 0.0116232)
(7.32229e-07 -7.32191e-07 0.0116225)
(-7.32206e-07 -7.322e-07 0.0116225)
(-2.08684e-06 -6.90254e-07 0.0116232)
(-3.1281e-06 -6.10917e-07 0.0116244)
(-3.68886e-06 -5.01689e-07 0.011626)
(-3.69598e-06 -3.70067e-07 0.0116267)
(3.51413e-06 -1.06995e-06 0.0116266)
(3.48799e-06 -1.43709e-06 0.0116263)
(2.95431e-06 -1.7451e-06 0.0116249)
(1.96855e-06 -1.96853e-06 0.0116238)
(6.90264e-07 -2.08684e-06 0.0116232)
(-6.90257e-07 -2.08684e-06 0.0116232)
(-1.96854e-06 -1.96854e-06 0.0116238)
(-2.95428e-06 -1.74514e-06 0.0116249)
(-3.48793e-06 -1.43716e-06 0.0116263)
(-3.5141e-06 -1.06996e-06 0.0116266)
(3.17636e-06 -1.63383e-06 0.0116258)
(3.11196e-06 -2.17157e-06 0.0116269)
(2.62604e-06 -2.62601e-06 0.0116258)
(1.74514e-06 -2.95427e-06 0.0116249)
(6.10928e-07 -3.12809e-06 0.0116244)
(-6.10918e-07 -3.1281e-06 0.0116244)
(-1.74515e-06 -2.95429e-06 0.0116249)
(-2.62607e-06 -2.62607e-06 0.0116258)
(-3.1119e-06 -2.17166e-06 0.0116269)
(-3.17624e-06 -1.63385e-06 0.0116258)
(2.69029e-06 -1.97103e-06 0.0116219)
(2.59095e-06 -2.59094e-06 0.0116269)
(2.17161e-06 -3.11195e-06 0.0116269)
(1.43713e-06 -3.48794e-06 0.0116263)
(5.0168e-07 -3.68886e-06 0.011626)
(-5.01698e-07 -3.68886e-06 0.011626)
(-1.43717e-06 -3.48793e-06 0.0116263)
(-2.17166e-06 -3.11188e-06 0.0116269)
(-2.59085e-06 -2.59084e-06 0.0116269)
(-2.6901e-06 -1.971e-06 0.0116219)
(2.1734e-06 -2.17332e-06 0.0116055)
(1.97104e-06 -2.69021e-06 0.0116219)
(1.6339e-06 -3.17631e-06 0.0116258)
(1.07001e-06 -3.51411e-06 0.0116266)
(3.7009e-07 -3.69598e-06 0.0116267)
(-3.70072e-07 -3.69598e-06 0.0116267)
(-1.06995e-06 -3.51409e-06 0.0116266)
(-1.63385e-06 -3.17624e-06 0.0116258)
(-1.97102e-06 -2.69009e-06 0.0116219)
(-2.17332e-06 -2.17329e-06 0.0116055)
(7.64005e-07 7.63965e-07 0.0116048)
(6.97407e-07 9.55005e-07 0.0116217)
(5.82211e-07 1.13513e-06 0.0116259)
(3.82635e-07 1.26209e-06 0.011627)
(1.32642e-07 1.33058e-06 0.0116273)
(-1.32665e-07 1.33057e-06 0.0116273)
(-3.82605e-07 1.26207e-06 0.011627)
(-5.8217e-07 1.1351e-06 0.0116259)
(-6.97373e-07 9.55031e-07 0.0116217)
(-7.63942e-07 7.64059e-07 0.0116048)
(9.54992e-07 6.9738e-07 0.0116217)
(9.28634e-07 9.28615e-07 0.0116273)
(7.84835e-07 1.12577e-06 0.0116279)
(5.22101e-07 1.26993e-06 0.0116278)
(1.82767e-07 1.34738e-06 0.0116277)
(-1.82782e-07 1.34739e-06 0.0116277)
(-5.22107e-07 1.26994e-06 0.0116278)
(-7.84806e-07 1.12576e-06 0.0116279)
(-9.2857e-07 9.28634e-07 0.0116273)
(-9.5497e-07 6.97405e-07 0.0116217)
(1.1351e-06 5.82202e-07 0.0116259)
(1.12578e-06 7.84834e-07 0.0116279)
(9.59255e-07 9.59249e-07 0.0116277)
(6.41485e-07 1.08706e-06 0.0116273)
(2.25297e-07 1.15524e-06 0.0116271)
(-2.25292e-07 1.15525e-06 0.0116271)
(-6.41474e-07 1.08708e-06 0.0116273)
(-9.5921e-07 9.59266e-07 0.0116277)
(-1.12573e-06 7.84844e-07 0.0116279)
(-1.13511e-06 5.82191e-07 0.0116259)
(1.26209e-06 3.82645e-07 0.011627)
(1.26995e-06 5.22112e-07 0.0116278)
(1.08706e-06 6.41484e-07 0.0116273)
(7.2941e-07 7.29411e-07 0.0116269)
(2.56679e-07 7.76353e-07 0.0116267)
(-2.56661e-07 7.76358e-07 0.0116267)
(-7.29401e-07 7.29429e-07 0.0116269)
(-1.08704e-06 6.41497e-07 0.0116273)
(-1.26991e-06 5.22099e-07 0.0116278)
(-1.26208e-06 3.82628e-07 0.011627)
(1.33059e-06 1.32648e-07 0.0116273)
(1.34738e-06 1.82761e-07 0.0116277)
(1.15524e-06 2.25289e-07 0.0116271)
(7.76354e-07 2.56678e-07 0.0116267)
(2.73417e-07 2.73417e-07 0.0116264)
(-2.73388e-07 2.73419e-07 0.0116264)
(-7.76333e-07 2.56689e-07 0.0116267)
(-1.15522e-06 2.25313e-07 0.0116271)
(-1.34735e-06 1.82776e-07 0.0116277)
(-1.33057e-06 1.32655e-07 0.0116273)
(1.33058e-06 -1.32672e-07 0.0116273)
(1.34739e-06 -1.82773e-07 0.0116277)
(1.15526e-06 -2.25285e-07 0.0116271)
(7.76364e-07 -2.56657e-07 0.0116267)
(2.7342e-07 -2.73384e-07 0.0116264)
(-2.73388e-07 -2.73386e-07 0.0116264)
(-7.76332e-07 -2.56658e-07 0.0116267)
(-1.15523e-06 -2.25285e-07 0.0116271)
(-1.34736e-06 -1.8278e-07 0.0116277)
(-1.33058e-06 -1.32663e-07 0.0116273)
(1.2621e-06 -3.82612e-07 0.011627)
(1.26996e-06 -5.22073e-07 0.0116278)
(1.08707e-06 -6.41463e-07 0.0116273)
(7.29427e-07 -7.29395e-07 0.0116269)
(2.56688e-07 -7.76326e-07 0.0116267)
(-2.56662e-07 -7.7633e-07 0.0116267)
(-7.29405e-07 -7.29405e-07 0.0116269)
(-1.08706e-06 -6.41477e-07 0.0116273)
(-1.26992e-06 -5.22104e-07 0.0116278)
(-1.26208e-06 -3.8261e-07 0.011627)
(1.13515e-06 -5.82155e-07 0.0116259)
(1.12577e-06 -7.84823e-07 0.0116279)
(9.59245e-07 -9.59236e-07 0.0116277)
(6.415e-07 -1.08704e-06 0.0116273)
(2.2531e-07 -1.15522e-06 0.0116271)
(-2.25295e-07 -1.15523e-06 0.0116271)
(-6.41478e-07 -1.08706e-06 0.0116273)
(-9.59241e-07 -9.59234e-07 0.0116277)
(-1.12573e-06 -7.84818e-07 0.0116279)
(-1.13511e-06 -5.82182e-07 0.0116259)
(9.54993e-07 -6.97348e-07 0.0116217)
(9.28602e-07 -9.28591e-07 0.0116273)
(7.84851e-07 -1.12571e-06 0.0116279)
(5.2213e-07 -1.26989e-06 0.0116278)
(1.82775e-07 -1.34735e-06 0.0116277)
(-1.82787e-07 -1.34736e-06 0.0116277)
(-5.22095e-07 -1.26991e-06 0.0116278)
(-7.8482e-07 -1.12574e-06 0.0116279)
(-9.28602e-07 -9.28609e-07 0.0116273)
(-9.55003e-07 -6.97429e-07 0.0116217)
(7.6398e-07 -7.63928e-07 0.0116048)
(6.974e-07 -9.54909e-07 0.0116217)
(5.82213e-07 -1.13505e-06 0.0116259)