/*--------------------------------*- C++ -*----------------------------------*\
| =========                 |                                                 |
| \\      /  F ield         | OpenFOAM: The Open Source CFD Toolbox           |
|  \\    /   O peration     | Version:  2412                                  |
|   \\  /    A nd           | Website:  www.openfoam.com                      |
|    \\/     M anipulation  |                                                 |
\*---------------------------------------------------------------------------*/
FoamFile
{
    version     2.0;
    format      ascii;
    arch        "LSB;label=32;scalar=64";
    class       surfaceScalarField;
    location    "5";
    object      phi;
}
// * * * * * * * * * * * * * * * * * * * * * * * * * * * * * * * * * * * * * //

dimensions      [0 3 -1 0 0 0 0];

oriented        oriented;

internalField   nonuniform List<scalar> 
43700
(
1.85501e-07
1.85501e-07
5.49699e-07
-2.25342e-07
-2.25342e-07
1.37335e-07
1.6481e-07
5.93998e-07
-2.01258e-07
9.09745e-08
1.51401e-07
6.25471e-07
-1.9108e-07
4.51406e-08
1.42419e-07
6.45646e-07
-1.82518e-07
1.8613e-16
1.38083e-07
6.55544e-07
-1.78558e-07
-4.51406e-08
1.38083e-07
6.55544e-07
-1.78558e-07
-9.09745e-08
1.42419e-07
6.45646e-07
-1.82518e-07
-1.37335e-07
1.51401e-07
6.25471e-07
-1.9108e-07
-1.85501e-07
1.6481e-07
5.93998e-07
-2.01258e-07
1.85501e-07
5.49699e-07
-2.25342e-07
-2.25342e-07
1.6481e-07
1.37335e-07
5.93998e-07
-2.01258e-07
1.22519e-07
1.22519e-07
6.30425e-07
8.06342e-08
1.11188e-07
6.55788e-07
3.98898e-08
1.03594e-07
6.72066e-07
9.25417e-16
9.98712e-08
6.80074e-07
-3.98898e-08
9.98712e-08
6.80074e-07
-8.06341e-08
1.03594e-07
6.72066e-07
-1.22519e-07
1.11188e-07
6.55788e-07
-1.6481e-07
1.22519e-07
6.30425e-07
1.37335e-07
5.93998e-07
-2.01258e-07
1.51401e-07
9.09745e-08
6.25471e-07
-1.9108e-07
1.11188e-07
8.06342e-08
6.55788e-07
7.26353e-08
7.26353e-08
6.76978e-07
3.58042e-08
6.72742e-08
6.90713e-07
3.71087e-16
6.46348e-08
6.97519e-07
-3.58042e-08
6.46348e-08
6.97519e-07
-7.26353e-08
6.72742e-08
6.90713e-07
-1.11188e-07
7.26353e-08
6.76978e-07
-1.51401e-07
8.06342e-08
6.55788e-07
9.09745e-08
6.25471e-07
-1.9108e-07
1.42419e-07
4.51406e-08
6.45646e-07
-1.82518e-07
1.03594e-07
3.98898e-08
6.72066e-07
6.72742e-08
3.58042e-08
6.90713e-07
3.30573e-08
3.30573e-08
7.02937e-07
-2.39661e-16
3.17018e-08
7.09032e-07
-3.30573e-08
3.17018e-08
7.09032e-07
-6.72742e-08
3.30573e-08
7.02937e-07
-1.03594e-07
3.58042e-08
6.90713e-07
-1.42419e-07
3.98898e-08
6.72066e-07
4.51406e-08
6.45646e-07
-1.82518e-07
1.38083e-07
3.16822e-16
6.55544e-07
-1.78558e-07
9.98712e-08
-1.82589e-16
6.80074e-07
6.46348e-08
-5.34169e-17
6.97519e-07
3.17018e-08
7.00444e-17
7.09032e-07
-8.13106e-17
-1.79774e-16
7.14796e-07
-3.17018e-08
1.9942e-16
7.14796e-07
-6.46348e-08
5.24413e-16
7.09032e-07
-9.98712e-08
1.73805e-16
6.97519e-07
-1.38083e-07
-2.36076e-16
6.80074e-07
3.10877e-16
6.55544e-07
-1.78558e-07
1.38083e-07
-4.51406e-08
6.55544e-07
-1.78558e-07
9.98712e-08
-3.98898e-08
6.80074e-07
6.46348e-08
-3.58042e-08
6.97519e-07
3.17018e-08
-3.30573e-08
7.09032e-07
3.60928e-16
-3.17018e-08
7.14796e-07
-3.17018e-08
-3.17018e-08
7.14796e-07
-6.46348e-08
-3.30573e-08
7.09032e-07
-9.98712e-08
-3.58042e-08
6.97519e-07
-1.38083e-07
-3.98898e-08
6.80074e-07
-4.51406e-08
6.55544e-07
-1.78558e-07
1.42419e-07
-9.09745e-08
6.45646e-07
-1.82518e-07
1.03594e-07
-8.06342e-08
6.72066e-07
6.72742e-08
-7.26353e-08
6.90713e-07
3.30573e-08
-6.72742e-08
7.02937e-07
6.43123e-17
-6.46348e-08
7.09032e-07
-3.30573e-08
-6.46348e-08
7.09032e-07
-6.72742e-08
-6.72742e-08
7.02937e-07
-1.03594e-07
-7.26353e-08
6.90713e-07
-1.42419e-07
-8.06342e-08
6.72066e-07
-9.09745e-08
6.45646e-07
-1.82518e-07
1.51401e-07
-1.37335e-07
6.25471e-07
-1.9108e-07
1.11188e-07
-1.22519e-07
6.55788e-07
7.26353e-08
-1.11188e-07
6.76978e-07
3.58042e-08
-1.03594e-07
6.90713e-07
-2.89134e-16
-9.98712e-08
6.97519e-07
-3.58042e-08
-9.98712e-08
6.97519e-07
-7.26353e-08
-1.03594e-07
6.90713e-07
-1.11188e-07
-1.11188e-07
6.76978e-07
-1.51401e-07
-1.22519e-07
6.55788e-07
-1.37335e-07
6.25471e-07
-1.9108e-07
1.6481e-07
-1.85501e-07
5.93998e-07
-2.01258e-07
1.22519e-07
-1.6481e-07
6.30425e-07
8.06341e-08
-1.51401e-07
6.55788e-07
3.98898e-08
-1.42419e-07
6.72066e-07
-1.51484e-16
-1.38083e-07
6.80074e-07
-3.98898e-08
-1.38083e-07
6.80074e-07
-8.06342e-08
-1.42419e-07
6.72066e-07
-1.22519e-07
-1.51401e-07
6.55788e-07
-1.6481e-07
-1.6481e-07
6.30425e-07
-1.85501e-07
5.93998e-07
-2.01258e-07
1.85501e-07
5.49699e-07
-2.25342e-07
-2.25342e-07
1.37335e-07
5.93998e-07
-2.01258e-07
9.09745e-08
6.25471e-07
-1.9108e-07
4.51406e-08
6.45646e-07
-1.82518e-07
8.48627e-16
6.55544e-07
-1.78558e-07
-4.51406e-08
6.55544e-07
-1.78558e-07
-9.09745e-08
6.45646e-07
-1.82518e-07
-1.37335e-07
6.25471e-07
-1.9108e-07
-1.85501e-07
5.93998e-07
-2.01258e-07
5.49699e-07
-2.25342e-07
-2.25342e-07
1.09873e-07
1.09873e-07
5.83623e-07
-1.26835e-07
-1.26835e-07
8.60921e-08
1.07429e-07
6.36512e-07
-1.26161e-07
5.88144e-08
1.0472e-07
6.72938e-07
-1.24909e-07
2.97242e-08
1.02339e-07
6.95631e-07
-1.23235e-07
5.28833e-17
1.01177e-07
7.06572e-07
-1.22482e-07
-2.97242e-08
1.01177e-07
7.06572e-07
-1.22482e-07
-5.88144e-08
1.02339e-07
6.95631e-07
-1.23235e-07
-8.60921e-08
1.0472e-07
6.72938e-07
-1.24909e-07
-1.09873e-07
1.07429e-07
6.36512e-07
-1.26161e-07
1.09873e-07
5.83623e-07
-1.26835e-07
-1.26835e-07
1.07429e-07
8.60921e-08
6.36512e-07
-1.26161e-07
8.31038e-08
8.31038e-08
6.79075e-07
5.63233e-08
8.02228e-08
7.07066e-07
2.83624e-08
7.80048e-08
7.24361e-07
8.13653e-16
7.69018e-08
7.32712e-07
-2.83624e-08
7.69018e-08
7.32712e-07
-5.63233e-08
7.80048e-08
7.24361e-07
-8.31038e-08
8.02228e-08
7.07066e-07
-1.07429e-07
8.31038e-08
6.79075e-07
8.60921e-08
6.36512e-07
-1.26161e-07
1.0472e-07
5.88144e-08
6.72938e-07
-1.24909e-07
8.02228e-08
5.63233e-08
7.07066e-07
5.40758e-08
5.40758e-08
7.29272e-07
2.71796e-08
5.24505e-08
7.43164e-07
5.04932e-16
5.16422e-08
7.49958e-07
-2.71796e-08
5.16422e-08
7.49958e-07
-5.40758e-08
5.24505e-08
7.43164e-07
-8.02228e-08
5.40758e-08
7.29272e-07
-1.0472e-07
5.63233e-08
7.07066e-07
5.88144e-08
6.72938e-07
-1.24909e-07
1.02339e-07
2.97242e-08
6.95631e-07
-1.23235e-07
7.80048e-08
2.83624e-08
7.24361e-07
5.24505e-08
2.71796e-08
7.43164e-07
2.63434e-08
2.63434e-08
7.55151e-07
3.57273e-16
2.59272e-08
7.61091e-07
-2.63434e-08
2.59272e-08
7.61091e-07
-5.24505e-08
2.63434e-08
7.55151e-07
-7.80048e-08
2.71796e-08
7.43164e-07
-1.02339e-07
2.83624e-08
7.24361e-07
2.97242e-08
6.95631e-07
-1.23235e-07
1.01177e-07
-7.69138e-16
7.06572e-07
-1.22482e-07
7.69018e-08
4.82793e-16
7.32712e-07
5.16422e-08
7.27153e-16
7.49958e-07
2.59272e-08
3.15034e-16
7.61091e-07
5.62274e-16
4.71695e-16
7.66651e-07
-2.59272e-08
8.87795e-16
7.66651e-07
-5.16422e-08
1.0883e-15
7.61091e-07
-7.69018e-08
7.67558e-16
7.49958e-07
-1.01177e-07
-1.95359e-16
7.32712e-07
-4.85794e-16
7.06572e-07
-1.22482e-07
1.01177e-07
-2.97242e-08
7.06572e-07
-1.22482e-07
7.69018e-08
-2.83624e-08
7.32712e-07
5.16422e-08
-2.71796e-08
7.49958e-07
2.59272e-08
-2.63434e-08
7.61091e-07
9.80078e-16
-2.59272e-08
7.66651e-07
-2.59272e-08
-2.59272e-08
7.66651e-07
-5.16422e-08
-2.63434e-08
7.61091e-07
-7.69018e-08
-2.71796e-08
7.49958e-07
-1.01177e-07
-2.83624e-08
7.32712e-07
-2.97242e-08
7.06572e-07
-1.22482e-07
1.02339e-07
-5.88144e-08
6.95631e-07
-1.23235e-07
7.80048e-08
-5.63233e-08
7.24361e-07
5.24505e-08
-5.40758e-08
7.43164e-07
2.63434e-08
-5.24505e-08
7.55151e-07
1.09258e-15
-5.16422e-08
7.61091e-07
-2.63434e-08
-5.16422e-08
7.61091e-07
-5.24505e-08
-5.24505e-08
7.55151e-07
-7.80048e-08
-5.40758e-08
7.43164e-07
-1.02339e-07
-5.63233e-08
7.24361e-07
-5.88144e-08
6.95631e-07
-1.23235e-07
1.0472e-07
-8.60921e-08
6.72938e-07
-1.24909e-07
8.02228e-08
-8.31038e-08
7.07066e-07
5.40758e-08
-8.02228e-08
7.29272e-07
2.71796e-08
-7.80048e-08
7.43164e-07
4.15637e-16
-7.69018e-08
7.49958e-07
-2.71796e-08
-7.69018e-08
7.49958e-07
-5.40758e-08
-7.80048e-08
7.43164e-07
-8.02228e-08
-8.02228e-08
7.29272e-07
-1.0472e-07
-8.31038e-08
7.07066e-07
-8.60921e-08
6.72938e-07
-1.24909e-07
1.07429e-07
-1.09873e-07
6.36512e-07
-1.26161e-07
8.31038e-08
-1.07429e-07
6.79075e-07
5.63233e-08
-1.0472e-07
7.07066e-07
2.83624e-08
-1.02339e-07
7.24361e-07
-1.04706e-15
-1.01177e-07
7.32712e-07
-2.83624e-08
-1.01177e-07
7.32712e-07
-5.63233e-08
-1.02339e-07
7.24361e-07
-8.31038e-08
-1.0472e-07
7.07066e-07
-1.07429e-07
-1.07429e-07
6.79075e-07
-1.09873e-07
6.36512e-07
-1.26161e-07
1.09873e-07
5.83623e-07
-1.26835e-07
-1.26835e-07
8.60921e-08
6.36512e-07
-1.26161e-07
5.88144e-08
6.72938e-07
-1.24909e-07
2.97242e-08
6.95631e-07
-1.23235e-07
-1.00243e-15
7.06572e-07
-1.22482e-07
-2.97242e-08
7.06572e-07
-1.22482e-07
-5.88144e-08
6.95631e-07
-1.23235e-07
-8.60921e-08
6.72938e-07
-1.24909e-07
-1.09873e-07
6.36512e-07
-1.26161e-07
5.83623e-07
-1.26835e-07
-1.26835e-07
7.1026e-08
7.1026e-08
5.92082e-07
-7.52555e-08
-7.52555e-08
5.94352e-08
7.47364e-08
6.5323e-07
-7.98635e-08
4.2403e-08
7.64874e-08
6.95621e-07
-8.21384e-08
2.19983e-08
7.70945e-08
7.22141e-07
-8.32001e-08
-5.89817e-16
7.73284e-08
7.34941e-07
-8.36985e-08
-2.19983e-08
7.73284e-08
7.34941e-07
-8.36985e-08
-4.2403e-08
7.70945e-08
7.22141e-07
-8.32001e-08
-5.94352e-08
7.64874e-08
6.95621e-07
-8.21384e-08
-7.1026e-08
7.47364e-08
6.5323e-07
-7.98635e-08
7.1026e-08
5.92082e-07
-7.52555e-08
-7.52555e-08
7.47364e-08
5.94352e-08
6.5323e-07
-7.98635e-08
6.20597e-08
6.20597e-08
7.04428e-07
4.41471e-08
6.32263e-08
7.3824e-07
2.28743e-08
6.35566e-08
7.59172e-07
2.4505e-15
6.3638e-08
7.69277e-07
-2.28743e-08
6.3638e-08
7.69277e-07
-4.41471e-08
6.35566e-08
7.59172e-07
-6.20597e-08
6.32263e-08
7.3824e-07
-7.47364e-08
6.20597e-08
7.04428e-07
5.94352e-08
6.5323e-07
-7.98635e-08
7.64874e-08
4.2403e-08
6.95621e-07
-8.21384e-08
6.32263e-08
4.41471e-08
7.3824e-07
4.48627e-08
4.48627e-08
7.65999e-07
2.32244e-08
4.5029e-08
7.8333e-07
1.81208e-15
4.50413e-08
7.91779e-07
-2.32244e-08
4.50413e-08
7.91779e-07
-4.48626e-08
4.5029e-08
7.8333e-07
-6.32263e-08
4.48626e-08
7.65999e-07
-7.64874e-08
4.41471e-08
7.3824e-07
4.2403e-08
6.95621e-07
-8.21384e-08
7.70945e-08
2.19983e-08
7.22141e-07
-8.32001e-08
6.35566e-08
2.28743e-08
7.59172e-07
4.5029e-08
2.32244e-08
7.8333e-07
2.32972e-08
2.32972e-08
7.98614e-07
1.13323e-15
2.32931e-08
8.06136e-07
-2.32972e-08
2.32931e-08
8.06136e-07
-4.5029e-08
2.32972e-08
7.98614e-07
-6.35566e-08
2.32244e-08
7.8333e-07
-7.70945e-08
2.28743e-08
7.59172e-07
2.19983e-08
7.22141e-07
-8.32001e-08
7.73284e-08
-2.03139e-16
7.34941e-07
-8.36985e-08
6.3638e-08
2.49393e-15
7.69277e-07
4.50413e-08
2.21138e-15
7.91779e-07
2.32931e-08
1.65475e-15
8.06136e-07
9.05536e-16
1.30355e-15
8.13237e-07
-2.32931e-08
1.40881e-15
8.13237e-07
-4.50413e-08
9.80992e-16
8.06136e-07
-6.3638e-08
-4.58946e-18
7.91779e-07
-7.73284e-08
-2.16166e-15
7.69277e-07
-2.64016e-15
7.34941e-07
-8.36985e-08
7.73284e-08
-2.19983e-08
7.34941e-07
-8.36985e-08
6.3638e-08
-2.28743e-08
7.69277e-07
4.50413e-08
-2.32244e-08
7.91779e-07
2.32931e-08
-2.32972e-08
8.06136e-07
9.5216e-16
-2.32931e-08
8.13237e-07
-2.32931e-08
-2.32931e-08
8.13237e-07
-4.50413e-08
-2.32972e-08
8.06136e-07
-6.3638e-08
-2.32244e-08
7.91779e-07
-7.73284e-08
-2.28743e-08
7.69277e-07
-2.19983e-08
7.34941e-07
-8.36985e-08
7.70945e-08
-4.2403e-08
7.22141e-07
-8.32001e-08
6.35566e-08
-4.41471e-08
7.59172e-07
4.5029e-08
-4.48626e-08
7.8333e-07
2.32972e-08
-4.5029e-08
7.98614e-07
5.83053e-16
-4.50413e-08
8.06136e-07
-2.32972e-08
-4.50413e-08
8.06136e-07
-4.5029e-08
-4.5029e-08
7.98614e-07
-6.35566e-08
-4.48626e-08
7.8333e-07
-7.70945e-08
-4.41471e-08
7.59172e-07
-4.2403e-08
7.22141e-07
-8.32001e-08
7.64874e-08
-5.94352e-08
6.95621e-07
-8.21384e-08
6.32263e-08
-6.20597e-08
7.3824e-07
4.48626e-08
-6.32263e-08
7.65999e-07
2.32244e-08
-6.35566e-08
7.8333e-07
-1.3844e-16
-6.3638e-08
7.91779e-07
-2.32244e-08
-6.3638e-08
7.91779e-07
-4.48626e-08
-6.35566e-08
7.8333e-07
-6.32263e-08
-6.32263e-08
7.65999e-07
-7.64874e-08
-6.20597e-08
7.3824e-07
-5.94352e-08
6.95621e-07
-8.21384e-08
7.47364e-08
-7.1026e-08
6.5323e-07
-7.98635e-08
6.20597e-08
-7.47364e-08
7.04428e-07
4.41471e-08
-7.64874e-08
7.3824e-07
2.28743e-08
-7.70945e-08
7.59172e-07
-2.16778e-15
-7.73284e-08
7.69277e-07
-2.28743e-08
-7.73284e-08
7.69277e-07
-4.41471e-08
-7.70945e-08
7.59172e-07
-6.20597e-08
-7.64874e-08
7.3824e-07
-7.47364e-08
-7.47364e-08
7.04428e-07
-7.1026e-08
6.5323e-07
-7.98635e-08
7.1026e-08
5.92082e-07
-7.52555e-08
-7.52555e-08
5.94352e-08
6.5323e-07
-7.98635e-08
4.2403e-08
6.95621e-07
-8.21384e-08
2.19983e-08
7.22141e-07
-8.32001e-08
-1.73177e-15
7.34941e-07
-8.36985e-08
-2.19983e-08
7.34941e-07
-8.36985e-08
-4.2403e-08
7.22141e-07
-8.32001e-08
-5.94352e-08
6.95621e-07
-8.21384e-08
-7.1026e-08
6.5323e-07
-7.98635e-08
5.92082e-07
-7.52555e-08
-7.52556e-08
2.73487e-08
2.73487e-08
5.91069e-07
-2.68424e-08
-2.68424e-08
2.45762e-08
3.18081e-08
6.55412e-07
-3.12172e-08
1.83598e-08
3.47463e-08
7.00813e-07
-3.37218e-08
9.79681e-09
3.6486e-08
7.29597e-07
-3.53785e-08
-3.48661e-16
3.7317e-08
7.43592e-07
-3.61718e-08
-9.79681e-09
3.7317e-08
7.43592e-07
-3.61718e-08
-1.83598e-08
3.6486e-08
7.29597e-07
-3.53785e-08
-2.45762e-08
3.47463e-08
7.00813e-07
-3.37218e-08
-2.73487e-08
3.18081e-08
6.55412e-07
-3.12172e-08
2.73487e-08
5.91069e-07
-2.68424e-08
-2.68424e-08
3.18081e-08
2.45762e-08
6.55412e-07
-3.12172e-08
2.83446e-08
2.83446e-08
7.11355e-07
2.11595e-08
3.09288e-08
7.49242e-07
1.12753e-08
3.24403e-08
7.73102e-07
1.33599e-15
3.3145e-08
7.84724e-07
-1.12753e-08
3.3145e-08
7.84724e-07
-2.11595e-08
3.24403e-08
7.73102e-07
-2.83446e-08
3.09288e-08
7.49242e-07
-3.18081e-08
2.83446e-08
7.11355e-07
2.45762e-08
6.55412e-07
-3.12172e-08
3.47463e-08
1.83598e-08
7.00813e-07
-3.37218e-08
3.09288e-08
2.11595e-08
7.49242e-07
2.30469e-08
2.30469e-08
7.81763e-07
1.22672e-08
2.4138e-08
8.02412e-07
1.14392e-15
2.46365e-08
8.12554e-07
-1.22672e-08
2.46365e-08
8.12554e-07
-2.30469e-08
2.4138e-08
8.02412e-07
-3.09288e-08
2.30469e-08
7.81763e-07
-3.47463e-08
2.11595e-08
7.49242e-07
1.83598e-08
7.00813e-07
-3.37218e-08
3.6486e-08
9.79681e-09
7.29597e-07
-3.53785e-08
3.24403e-08
1.12753e-08
7.73102e-07
2.4138e-08
1.22672e-08
8.02412e-07
1.28366e-08
1.28366e-08
8.21217e-07
7.8409e-16
1.30936e-08
8.30516e-07
-1.28366e-08
1.30936e-08
8.30516e-07
-2.4138e-08
1.28366e-08
8.21217e-07
-3.24403e-08
1.22672e-08
8.02412e-07
-3.6486e-08
1.12753e-08
7.73102e-07
9.79681e-09
7.29597e-07
-3.53785e-08
3.7317e-08
1.21612e-15
7.43592e-07
-3.61718e-08
3.3145e-08
1.34675e-15
7.84724e-07
2.46365e-08
1.00094e-15
8.12554e-07
1.30936e-08
1.0582e-15
8.30516e-07
9.42047e-16
1.02853e-15
8.39424e-07
-1.30936e-08
1.48227e-15
8.39424e-07
-2.46365e-08
1.37284e-15
8.30516e-07
-3.3145e-08
7.62486e-16
8.12554e-07
-3.7317e-08
-2.05534e-15
7.84724e-07
-2.78058e-15
7.43592e-07
-3.61718e-08
3.7317e-08
-9.79681e-09
7.43592e-07
-3.61718e-08
3.3145e-08
-1.12753e-08
7.84724e-07
2.46365e-08
-1.22672e-08
8.12554e-07
1.30936e-08
-1.28366e-08
8.30516e-07
1.33161e-15
-1.30936e-08
8.39424e-07
-1.30936e-08
-1.30936e-08
8.39424e-07
-2.46365e-08
-1.28366e-08
8.30516e-07
-3.3145e-08
-1.22672e-08
8.12554e-07
-3.7317e-08
-1.12753e-08
7.84724e-07
-9.79682e-09
7.43592e-07
-3.61718e-08
3.6486e-08
-1.83598e-08
7.29597e-07
-3.53785e-08
3.24403e-08
-2.11595e-08
7.73102e-07
2.4138e-08
-2.30469e-08
8.02412e-07
1.28366e-08
-2.4138e-08
8.21217e-07
1.13132e-15
-2.46365e-08
8.30516e-07
-1.28366e-08
-2.46365e-08
8.30516e-07
-2.4138e-08
-2.4138e-08
8.21217e-07
-3.24403e-08
-2.30469e-08
8.02412e-07
-3.6486e-08
-2.11595e-08
7.73102e-07
-1.83598e-08
7.29597e-07
-3.53785e-08
3.47463e-08
-2.45762e-08
7.00813e-07
-3.37218e-08
3.09288e-08
-2.83446e-08
7.49242e-07
2.30469e-08
-3.09288e-08
7.81763e-07
1.22672e-08
-3.24403e-08
8.02412e-07
7.69062e-16
-3.3145e-08
8.12554e-07
-1.22672e-08
-3.3145e-08
8.12554e-07
-2.30469e-08
-3.24403e-08
8.02412e-07
-3.09288e-08
-3.09288e-08
7.81763e-07
-3.47463e-08
-2.83446e-08
7.49242e-07
-2.45762e-08
7.00813e-07
-3.37218e-08
3.18081e-08
-2.73487e-08
6.55412e-07
-3.12172e-08
2.83446e-08
-3.18081e-08
7.11355e-07
2.11595e-08
-3.47463e-08
7.49242e-07
1.12753e-08
-3.6486e-08
7.73102e-07
-1.47075e-15
-3.7317e-08
7.84724e-07
-1.12753e-08
-3.7317e-08
7.84724e-07
-2.11595e-08
-3.6486e-08
7.73102e-07
-2.83446e-08
-3.47463e-08
7.49242e-07
-3.18081e-08
-3.18081e-08
7.11355e-07
-2.73487e-08
6.55412e-07
-3.12172e-08
2.73487e-08
5.91069e-07
-2.68424e-08
-2.68424e-08
2.45762e-08
6.55412e-07
-3.12172e-08
1.83598e-08
7.00813e-07
-3.37218e-08
9.79681e-09
7.29597e-07
-3.53785e-08
-2.09864e-15
7.43592e-07
-3.61718e-08
-9.79682e-09
7.43592e-07
-3.61718e-08
-1.83598e-08
7.29597e-07
-3.53785e-08
-2.45762e-08
7.00813e-07
-3.37218e-08
-2.73487e-08
6.55412e-07
-3.12172e-08
5.91069e-07
-2.68424e-08
-2.68424e-08
1.05965e-08
1.05965e-08
5.89444e-07
-9.78386e-09
-9.78386e-09
9.89014e-09
1.28703e-08
6.55007e-07
-1.17594e-08
7.5855e-09
1.44797e-08
7.01683e-07
-1.30455e-08
4.11171e-09
1.55103e-08
7.31494e-07
-1.39337e-08
2.62256e-16
1.60113e-08
7.46052e-07
-1.43591e-08
-4.11171e-09
1.60113e-08
7.46052e-07
-1.43591e-08
-7.58551e-09
1.55103e-08
7.31494e-07
-1.39337e-08
-9.89014e-09
1.44797e-08
7.01683e-07
-1.30455e-08
-1.05965e-08
1.28703e-08
6.55007e-07
-1.17594e-08
1.05965e-08
5.89444e-07
-9.78386e-09
-9.78386e-09
1.28703e-08
9.89014e-09
6.55007e-07
-1.17594e-08
1.20038e-08
1.20038e-08
7.13088e-07
9.21822e-09
1.35322e-08
7.52975e-07
4.99172e-09
1.44844e-08
7.78354e-07
2.09188e-15
1.49421e-08
7.90785e-07
-4.99172e-09
1.49421e-08
7.90785e-07
-9.21822e-09
1.44844e-08
7.78354e-07
-1.20038e-08
1.35322e-08
7.52975e-07
-1.28703e-08
1.20038e-08
7.13088e-07
9.89014e-09
6.55007e-07
-1.17594e-08
1.44797e-08
7.5855e-09
7.01683e-07
-1.30455e-08
1.35322e-08
9.21822e-09
7.52975e-07
1.03906e-08
1.03906e-08
7.88046e-07
5.62192e-09
1.11094e-08
8.10556e-07
1.76912e-15
1.14503e-08
8.21668e-07
-5.62192e-09
1.14503e-08
8.21668e-07
-1.03906e-08
1.11094e-08
8.10556e-07
-1.35322e-08
1.03906e-08
7.88046e-07
-1.44797e-08
9.21822e-09
7.52975e-07
7.5855e-09
7.01683e-07
-1.30455e-08
1.55103e-08
4.11171e-09
7.31494e-07
-1.39337e-08
1.44844e-08
4.99172e-09
7.78354e-07
1.11094e-08
5.62192e-09
8.10556e-07
6.0066e-09
6.0066e-09
8.31423e-07
1.143e-15
6.18788e-09
8.41785e-07
-6.0066e-09
6.18788e-09
8.41785e-07
-1.11094e-08
6.0066e-09
8.31423e-07
-1.44844e-08
5.62192e-09
8.10556e-07
-1.55103e-08
4.99172e-09
7.78354e-07
4.11171e-09
7.31494e-07
-1.39337e-08
1.60113e-08
6.84993e-16
7.46052e-07
-1.43591e-08
1.49421e-08
1.86572e-15
7.90785e-07
1.14503e-08
1.77457e-15
8.21668e-07
6.18788e-09
1.48417e-15
8.41785e-07
8.33376e-16
1.19828e-15
8.518e-07
-6.18788e-09
1.19823e-15
8.518e-07
-1.14503e-08
8.98377e-16
8.41785e-07
-1.49421e-08
2.3652e-16
8.21668e-07
-1.60113e-08
-9.23901e-16
7.90785e-07
-5.18142e-16
7.46052e-07
-1.43591e-08
1.60113e-08
-4.11171e-09
7.46052e-07
-1.43591e-08
1.49421e-08
-4.99172e-09
7.90785e-07
1.14503e-08
-5.62192e-09
8.21668e-07
6.18788e-09
-6.0066e-09
8.41785e-07
7.55268e-16
-6.18788e-09
8.518e-07
-6.18788e-09
-6.18788e-09
8.518e-07
-1.14503e-08
-6.0066e-09
8.41785e-07
-1.49421e-08
-5.62192e-09
8.21668e-07
-1.60113e-08
-4.99172e-09
7.90785e-07
-4.11171e-09
7.46052e-07
-1.43591e-08
1.55103e-08
-7.58551e-09
7.31494e-07
-1.39337e-08
1.44844e-08
-9.21822e-09
7.78354e-07
1.11094e-08
-1.03906e-08
8.10556e-07
6.0066e-09
-1.11094e-08
8.31423e-07
5.79662e-16
-1.14503e-08
8.41785e-07
-6.0066e-09
-1.14503e-08
8.41785e-07
-1.11094e-08
-1.11094e-08
8.31423e-07
-1.44844e-08
-1.03906e-08
8.10556e-07
-1.55103e-08
-9.21822e-09
7.78354e-07
-7.58551e-09
7.31494e-07
-1.39337e-08
1.44797e-08
-9.89014e-09
7.01683e-07
-1.30455e-08
1.35322e-08
-1.20038e-08
7.52975e-07
1.03906e-08
-1.35322e-08
7.88046e-07
5.62192e-09
-1.44844e-08
8.10556e-07
1.52379e-16
-1.49421e-08
8.21668e-07
-5.62192e-09
-1.49421e-08
8.21668e-07
-1.03906e-08
-1.44844e-08
8.10556e-07
-1.35322e-08
-1.35322e-08
7.88046e-07
-1.44797e-08
-1.20038e-08
7.52975e-07
-9.89014e-09
7.01683e-07
-1.30455e-08
1.28703e-08
-1.05965e-08
6.55007e-07
-1.17594e-08
1.20038e-08
-1.28703e-08
7.13088e-07
9.21821e-09
-1.44797e-08
7.52975e-07
4.99172e-09
-1.55103e-08
7.78354e-07
-1.47881e-15
-1.60113e-08
7.90785e-07
-4.99172e-09
-1.60113e-08
7.90785e-07
-9.21822e-09
-1.55103e-08
7.78354e-07
-1.20038e-08
-1.44797e-08
7.52975e-07
-1.28703e-08
-1.28703e-08
7.13088e-07
-1.05965e-08
6.55007e-07
-1.17594e-08
1.05965e-08
5.89444e-07
-9.78386e-09
-9.78386e-09
9.89014e-09
6.55007e-07
-1.17594e-08
7.5855e-09
7.01683e-07
-1.30455e-08
4.11171e-09
7.31494e-07
-1.39337e-08
-1.0044e-15
7.46052e-07
-1.43591e-08
-4.11171e-09
7.46052e-07
-1.43591e-08
-7.58551e-09
7.31494e-07
-1.39337e-08
-9.89014e-09
7.01683e-07
-1.30455e-08
-1.05965e-08
6.55007e-07
-1.17594e-08
5.89444e-07
-9.78386e-09
-9.78386e-09
3.49045e-09
3.49045e-09
5.88307e-07
-2.92181e-09
-2.92181e-09
3.4796e-09
4.59616e-09
6.54228e-07
-3.8061e-09
2.78119e-09
5.41963e-09
7.01383e-07
-4.42114e-09
1.54391e-09
5.97209e-09
7.31625e-07
-4.86569e-09
1.3148e-16
6.24437e-09
7.4643e-07
-5.07921e-09
-1.54391e-09
6.24437e-09
7.4643e-07
-5.07921e-09
-2.78119e-09
5.97209e-09
7.31625e-07
-4.86569e-09
-3.4796e-09
5.41963e-09
7.01383e-07
-4.42114e-09
-3.49045e-09
4.59616e-09
6.54228e-07
-3.8061e-09
3.49045e-09
5.88307e-07
-2.92181e-09
-2.92181e-09
4.59616e-09
3.4796e-09
6.54228e-07
-3.8061e-09
4.56208e-09
4.56208e-09
7.13157e-07
3.63758e-09
5.37911e-09
7.5394e-07
2.011e-09
5.90945e-09
7.80043e-07
4.04118e-16
6.16904e-09
7.92871e-07
-2.011e-09
6.16904e-09
7.92871e-07
-3.63758e-09
5.90945e-09
7.80043e-07
-4.56209e-09
5.37911e-09
7.5394e-07
-4.59616e-09
4.56208e-09
7.13157e-07
3.4796e-09
6.54228e-07
-3.8061e-09
5.41963e-09
2.78119e-09
7.01383e-07
-4.42114e-09
5.37911e-09
3.63758e-09
7.5394e-07
4.28061e-09
4.28061e-09
7.90243e-07
2.36087e-09
4.69027e-09
8.13695e-07
2.4883e-16
4.88841e-09
8.2531e-07
-2.36087e-09
4.88841e-09
8.2531e-07
-4.28061e-09
4.69027e-09
8.13695e-07
-5.37911e-09
4.28061e-09
7.90243e-07
-5.41963e-09
3.63758e-09
7.5394e-07
2.78119e-09
7.01383e-07
-4.42114e-09
5.97209e-09
1.54391e-09
7.31625e-07
-4.86569e-09
5.90945e-09
2.011e-09
7.80043e-07
4.69027e-09
2.36087e-09
8.13695e-07
2.58247e-09
2.58247e-09
8.35638e-07
5.3332e-16
2.68901e-09
8.46567e-07
-2.58247e-09
2.68901e-09
8.46567e-07
-4.69027e-09
2.58247e-09
8.35638e-07
-5.90945e-09
2.36087e-09
8.13695e-07
-5.97209e-09
2.011e-09
7.80043e-07
1.54391e-09
7.31625e-07
-4.86569e-09
6.24437e-09
6.31449e-16
7.4643e-07
-5.07921e-09
6.16904e-09
5.93804e-16
7.92871e-07
4.88841e-09
1.49928e-16
8.2531e-07
2.68901e-09
3.68771e-16
8.46567e-07
7.82317e-16
7.10535e-16
8.57178e-07
-2.68901e-09
9.74469e-16
8.57178e-07
-4.88841e-09
1.08662e-15
8.46567e-07
-6.16904e-09
5.91784e-16
8.2531e-07
-6.24437e-09
-4.3903e-16
7.92871e-07
-2.67941e-16
7.4643e-07
-5.07921e-09
6.24437e-09
-1.54391e-09
7.4643e-07
-5.07921e-09
6.16904e-09
-2.011e-09
7.92871e-07
4.88841e-09
-2.36087e-09
8.2531e-07
2.68901e-09
-2.58247e-09
8.46567e-07
1.16392e-15
-2.68901e-09
8.57178e-07
-2.68901e-09
-2.68901e-09
8.57178e-07
-4.88841e-09
-2.58247e-09
8.46567e-07
-6.16904e-09
-2.36087e-09
8.2531e-07
-6.24436e-09
-2.011e-09
7.92871e-07
-1.54391e-09
7.4643e-07
-5.07921e-09
5.97209e-09
-2.78119e-09
7.31625e-07
-4.86569e-09
5.90945e-09
-3.63758e-09
7.80043e-07
4.69027e-09
-4.28061e-09
8.13695e-07
2.58247e-09
-4.69027e-09
8.35638e-07
1.02779e-15
-4.88841e-09
8.46567e-07
-2.58247e-09
-4.88841e-09
8.46567e-07
-4.69027e-09
-4.69027e-09
8.35638e-07
-5.90945e-09
-4.28061e-09
8.13695e-07
-5.97209e-09
-3.63758e-09
7.80043e-07
-2.7812e-09
7.31625e-07
-4.86569e-09
5.41963e-09
-3.4796e-09
7.01383e-07
-4.42114e-09
5.37911e-09
-4.56208e-09
7.5394e-07
4.28061e-09
-5.37911e-09
7.90243e-07
2.36087e-09
-5.90945e-09
8.13695e-07
1.4295e-16
-6.16904e-09
8.2531e-07
-2.36087e-09
-6.16904e-09
8.2531e-07
-4.28061e-09
-5.90945e-09
8.13695e-07
-5.37911e-09
-5.3791e-09
7.90243e-07
-5.41963e-09
-4.56209e-09
7.5394e-07
-3.4796e-09
7.01383e-07
-4.42114e-09
4.59616e-09
-3.49045e-09
6.54228e-07
-3.8061e-09
4.56209e-09
-4.59616e-09
7.13157e-07
3.63758e-09
-5.41963e-09
7.5394e-07
2.011e-09
-5.97209e-09
7.80043e-07
-9.58366e-16
-6.24437e-09
7.92871e-07
-2.011e-09
-6.24436e-09
7.92871e-07
-3.63759e-09
-5.97209e-09
7.80043e-07
-4.56209e-09
-5.41963e-09
7.5394e-07
-4.59617e-09
-4.59617e-09
7.13157e-07
-3.49045e-09
6.54228e-07
-3.8061e-09
3.49045e-09
5.88307e-07
-2.92181e-09
-2.92181e-09
3.4796e-09
6.54228e-07
-3.8061e-09
2.78119e-09
7.01383e-07
-4.42114e-09
1.54391e-09
7.31625e-07
-4.86569e-09
-5.71559e-16
7.4643e-07
-5.07921e-09
-1.54391e-09
7.4643e-07
-5.07921e-09
-2.78119e-09
7.31625e-07
-4.86569e-09
-3.4796e-09
7.01383e-07
-4.42114e-09
-3.49045e-09
6.54228e-07
-3.8061e-09
5.88307e-07
-2.92181e-09
-2.92181e-09
9.36558e-10
9.36559e-10
5.87812e-07
-6.89173e-10
-6.89173e-10
1.01674e-09
1.38117e-09
6.53784e-07
-1.01759e-09
8.52775e-10
1.73127e-09
7.0107e-07
-1.25395e-09
4.86499e-10
1.9798e-09
7.3145e-07
-1.4386e-09
5.66983e-16
2.10436e-09
7.46341e-07
-1.528e-09
-4.86497e-10
2.10436e-09
7.46341e-07
-1.528e-09
-8.52774e-10
1.9798e-09
7.3145e-07
-1.4386e-09
-1.01674e-09
1.73127e-09
7.0107e-07
-1.25395e-09
-9.36556e-10
1.38117e-09
6.53784e-07
-1.01759e-09
9.36558e-10
5.87812e-07
-6.89172e-10
-6.89173e-10
1.38117e-09
1.01674e-09
6.53784e-07
-1.01759e-09
1.4745e-09
1.47451e-09
7.1297e-07
1.227e-09
1.84136e-09
7.54078e-07
6.94442e-10
2.09212e-09
7.80464e-07
8.81999e-16
2.2177e-09
7.93452e-07
-6.9444e-10
2.21771e-09
7.93452e-07
-1.227e-09
2.09212e-09
7.80464e-07
-1.4745e-09
1.84136e-09
7.54078e-07
-1.38117e-09
1.4745e-09
7.1297e-07
1.01674e-09
6.53784e-07
-1.01759e-09
1.73127e-09
8.52777e-10
7.0107e-07
-1.25395e-09
1.84137e-09
1.227e-09
7.54078e-07
1.52556e-09
1.52555e-09
7.90875e-07
8.59806e-10
1.7256e-09
8.14727e-07
1.09334e-15
1.825e-09
8.26562e-07
-8.59803e-10
1.825e-09
8.26562e-07
-1.52555e-09
1.7256e-09
8.14727e-07
-1.84136e-09
1.52555e-09
7.90875e-07
-1.73127e-09
1.227e-09
7.54078e-07
8.52776e-10
7.0107e-07
-1.25395e-09
1.9798e-09
4.865e-10
7.3145e-07
-1.4386e-09
2.09212e-09
6.94442e-10
7.80464e-07
1.7256e-09
8.59805e-10
8.14727e-07
9.69906e-10
9.69905e-10
8.3715e-07
1.0384e-15
1.02439e-09
8.48337e-07
-9.69903e-10
1.02439e-09
8.48337e-07
-1.7256e-09
9.69905e-10
8.3715e-07
-2.09212e-09
8.59804e-10
8.14727e-07
-1.9798e-09
6.94441e-10
7.80464e-07
4.86499e-10
7.3145e-07
-1.4386e-09
2.10436e-09
6.78159e-16
7.46341e-07
-1.528e-09
2.21771e-09
1.32822e-15
7.93452e-07
1.825e-09
1.03802e-15
8.26562e-07
1.02439e-09
9.81485e-16
8.48337e-07
7.96634e-16
9.92118e-16
8.59227e-07
-1.02439e-09
8.7988e-16
8.59227e-07
-1.825e-09
7.5944e-16
8.48337e-07
-2.2177e-09
5.65068e-16
8.26562e-07
-2.10436e-09
1.28468e-16
7.93452e-07
-1.57639e-18
7.46341e-07
-1.528e-09
2.10436e-09
-4.86498e-10
7.46341e-07
-1.528e-09
2.21771e-09
-6.94439e-10
7.93452e-07
1.825e-09
-8.59803e-10
8.26562e-07
1.02439e-09
-9.69903e-10
8.48337e-07
7.67246e-16
-1.02439e-09
8.59227e-07
-1.02439e-09
-1.02439e-09
8.59227e-07
-1.825e-09
-9.69903e-10
8.48337e-07
-2.2177e-09
-8.59803e-10
8.26562e-07
-2.10436e-09
-6.94441e-10
7.93452e-07
-4.86499e-10
7.46341e-07
-1.528e-09
1.9798e-09
-8.52775e-10
7.3145e-07
-1.4386e-09
2.09212e-09
-1.227e-09
7.80464e-07
1.7256e-09
-1.52555e-09
8.14727e-07
9.69905e-10
-1.7256e-09
8.3715e-07
7.08023e-16
-1.825e-09
8.48337e-07
-9.69904e-10
-1.825e-09
8.48337e-07
-1.7256e-09
-1.7256e-09
8.3715e-07
-2.09212e-09
-1.52555e-09
8.14727e-07
-1.9798e-09
-1.227e-09
7.80464e-07
-8.52776e-10
7.3145e-07
-1.4386e-09
1.73127e-09
-1.01674e-09
7.0107e-07
-1.25395e-09
1.84136e-09
-1.4745e-09
7.54078e-07
1.52555e-09
-1.84136e-09
7.90875e-07
8.59805e-10
-2.09212e-09
8.14727e-07
7.25616e-16
-2.2177e-09
8.26562e-07
-8.59803e-10
-2.2177e-09
8.26562e-07
-1.52555e-09
-2.09212e-09
8.14727e-07
-1.84136e-09
-1.84136e-09
7.90875e-07
-1.73127e-09
-1.4745e-09
7.54078e-07
-1.01674e-09
7.0107e-07
-1.25395e-09
1.38117e-09
-9.36558e-10
6.53784e-07
-1.01759e-09
1.4745e-09
-1.38117e-09
7.1297e-07
1.227e-09
-1.73127e-09
7.54078e-07
6.94441e-10
-1.9798e-09
7.80464e-07
5.21584e-16
-2.10436e-09
7.93452e-07
-6.9444e-10
-2.10436e-09
7.93452e-07
-1.227e-09
-1.9798e-09
7.80464e-07
-1.4745e-09
-1.73127e-09
7.54078e-07
-1.38117e-09
-1.38117e-09
7.1297e-07
-9.36558e-10
6.53784e-07
-1.01759e-09
9.36557e-10
5.87812e-07
-6.89173e-10
-6.89173e-10
1.01674e-09
6.53784e-07
-1.01759e-09
8.52775e-10
7.0107e-07
-1.25395e-09
4.86498e-10
7.3145e-07
-1.4386e-09
2.60616e-16
7.46341e-07
-1.528e-09
-4.86498e-10
7.46341e-07
-1.528e-09
-8.52775e-10
7.3145e-07
-1.4386e-09
-1.01674e-09
7.0107e-07
-1.25395e-09
-9.36557e-10
6.53784e-07
-1.01759e-09
5.87812e-07
-6.89173e-10
-6.89173e-10
2.22533e-10
2.22533e-10
5.87632e-07
-1.32649e-10
-1.32648e-10
2.68245e-10
3.74898e-10
6.53602e-07
-2.38358e-10
2.37181e-10
4.99773e-10
7.00918e-07
-3.16524e-10
1.39242e-10
5.92713e-10
7.31337e-07
-3.81232e-10
3.12551e-16
6.39705e-10
7.46252e-07
-4.12197e-10
-1.39241e-10
6.39705e-10
7.46252e-07
-4.12197e-10
-2.3718e-10
5.92712e-10
7.31337e-07
-3.81232e-10
-2.68244e-10
4.99773e-10
7.00918e-07
-3.16525e-10
-2.22533e-10
3.74899e-10
6.53602e-07
-2.38358e-10
2.22533e-10
5.87632e-07
-1.32648e-10
-1.32648e-10
3.74898e-10
2.68244e-10
6.53602e-07
-2.38358e-10
4.32085e-10
4.32084e-10
7.12855e-07
3.74702e-10
5.69437e-10
7.54066e-07
2.16802e-10
6.67511e-10
7.80547e-07
2.38945e-16
7.1747e-10
7.93591e-07
-2.16801e-10
7.1747e-10
7.93591e-07
-3.74701e-10
6.67511e-10
7.80547e-07
-4.32084e-10
5.69437e-10
7.54066e-07
-3.74898e-10
4.32085e-10
7.12855e-07
2.68244e-10
6.53602e-07
-2.38357e-10
4.99773e-10
2.3718e-10
7.00918e-07
-3.16524e-10
5.69436e-10
3.74701e-10
7.54066e-07
4.90008e-10
4.90009e-10
7.91034e-07
2.81754e-10
5.70715e-10
8.15032e-07
5.06826e-17
6.11671e-10
8.2695e-07
-2.81754e-10
6.11671e-10
8.2695e-07
-4.90009e-10
5.70715e-10
8.15032e-07
-5.69436e-10
4.90009e-10
7.91034e-07
-4.99773e-10
3.74702e-10
7.54066e-07
2.3718e-10
7.00918e-07
-3.16524e-10
5.92712e-10
1.39242e-10
7.31337e-07
-3.81232e-10
6.6751e-10
2.16801e-10
7.80547e-07
5.70714e-10
2.81754e-10
8.15032e-07
3.26957e-10
3.26957e-10
8.37637e-07
7.4472e-17
3.49857e-10
8.48926e-07
-3.26957e-10
3.49857e-10
8.48926e-07
-5.70714e-10
3.26958e-10
8.37637e-07
-6.6751e-10
2.81755e-10
8.15032e-07
-5.92712e-10
2.16802e-10
7.80547e-07
1.39241e-10
7.31337e-07
-3.81232e-10