/*--------------------------------*- C++ -*----------------------------------*\
| =========                 |                                                 |
| \\      /  F ield         | OpenFOAM: The Open Source CFD Toolbox           |
|  \\    /   O peration     | Version:  2412                                  |
|   \\  /    A nd           | Website:  www.openfoam.com                      |
|    \\/     M anipulation  |                                                 |
\*---------------------------------------------------------------------------*/
FoamFile
{
    version     2.0;
    format      ascii;
    arch        "LSB;label=32;scalar=64";
    class       volVectorField;
    location    "5";
    object      U;
}
// * * * * * * * * * * * * * * * * * * * * * * * * * * * * * * * * * * * * * //

dimensions      [0 1 -1 0 0 0 0];

internalField   nonuniform List<vector> 
15000
(
(0.00121547 0.00121547 0.0104668)
(0.00089921 0.00114037 0.0104434)
(0.000613327 0.00111532 0.0104153)
(0.000360095 0.00108975 0.0103926)
(0.000118259 0.00107783 0.0103807)
(-0.000118259 0.00107783 0.0103807)
(-0.000360095 0.00108975 0.0103926)
(-0.000613327 0.00111532 0.0104153)
(-0.00089921 0.00114037 0.0104434)
(-0.00121547 0.00121547 0.0104668)
(0.00114037 0.00089921 0.0104434)
(0.000849063 0.000849063 0.0103977)
(0.000580744 0.000812163 0.0103565)
(0.000338325 0.000785488 0.0103277)
(0.000110918 0.000772396 0.0103132)
(-0.000110918 0.000772396 0.0103132)
(-0.000338325 0.000785488 0.0103277)
(-0.000580744 0.000812163 0.0103565)
(-0.000849063 0.000849063 0.0103977)
(-0.00114037 0.00089921 0.0104434)
(0.00111532 0.000613327 0.0104153)
(0.000812163 0.000580744 0.0103565)
(0.000550554 0.000550554 0.0103098)
(0.000318573 0.000528422 0.0102787)
(0.000104158 0.000517223 0.0102632)
(-0.000104158 0.000517223 0.0102632)
(-0.000318573 0.000528422 0.0102787)
(-0.000550554 0.000550554 0.0103098)
(-0.000812163 0.000580744 0.0103565)
(-0.00111532 0.000613327 0.0104153)
(0.00108975 0.000360095 0.0103926)
(0.000785488 0.000338325 0.0103277)
(0.000528422 0.000318573 0.0102787)
(0.00030413 0.00030413 0.0102465)
(9.91999e-05 0.000296765 0.0102306)
(-9.91999e-05 0.000296765 0.0102306)
(-0.00030413 0.00030413 0.0102465)
(-0.000528422 0.000318573 0.0102787)
(-0.000785488 0.000338325 0.0103277)
(-0.00108975 0.000360095 0.0103926)
(0.00107783 0.000118259 0.0103807)
(0.000772396 0.000110918 0.0103132)
(0.000517223 0.000104158 0.0102632)
(0.000296765 9.91999e-05 0.0102306)
(9.66656e-05 9.66656e-05 0.0102146)
(-9.66656e-05 9.66656e-05 0.0102146)
(-0.000296765 9.91999e-05 0.0102306)
(-0.000517223 0.000104158 0.0102632)
(-0.000772396 0.000110918 0.0103132)
(-0.00107783 0.000118259 0.0103807)
(0.00107783 -0.000118259 0.0103807)
(0.000772396 -0.000110918 0.0103132)
(0.000517223 -0.000104158 0.0102632)
(0.000296765 -9.91999e-05 0.0102306)
(9.66656e-05 -9.66656e-05 0.0102146)
(-9.66656e-05 -9.66656e-05 0.0102146)
(-0.000296765 -9.91999e-05 0.0102306)
(-0.000517223 -0.000104158 0.0102632)
(-0.000772396 -0.000110918 0.0103132)
(-0.00107783 -0.000118259 0.0103807)
(0.00108975 -0.000360095 0.0103926)
(0.000785488 -0.000338325 0.0103277)
(0.000528422 -0.000318573 0.0102787)
(0.00030413 -0.00030413 0.0102465)
(9.91999e-05 -0.000296765 0.0102306)
(-9.91999e-05 -0.000296765 0.0102306)
(-0.00030413 -0.00030413 0.0102465)
(-0.000528422 -0.000318573 0.0102787)
(-0.000785488 -0.000338325 0.0103277)
(-0.00108975 -0.000360095 0.0103926)
(0.00111532 -0.000613327 0.0104153)
(0.000812163 -0.000580744 0.0103565)
(0.000550554 -0.000550554 0.0103098)
(0.000318573 -0.000528422 0.0102787)
(0.000104158 -0.000517223 0.0102632)
(-0.000104158 -0.000517223 0.0102632)
(-0.000318573 -0.000528422 0.0102787)
(-0.000550554 -0.000550554 0.0103098)
(-0.000812163 -0.000580744 0.0103565)
(-0.00111532 -0.000613327 0.0104153)
(0.00114037 -0.00089921 0.0104434)
(0.000849063 -0.000849063 0.0103977)
(0.000580744 -0.000812163 0.0103565)
(0.000338325 -0.000785488 0.0103277)
(0.000110918 -0.000772396 0.0103132)
(-0.000110918 -0.000772396 0.0103132)
(-0.000338325 -0.000785488 0.0103277)
(-0.000580744 -0.000812163 0.0103565)
(-0.000849063 -0.000849063 0.0103977)
(-0.00114037 -0.00089921 0.0104434)
(0.00121547 -0.00121547 0.0104668)
(0.00089921 -0.00114037 0.0104434)
(0.000613327 -0.00111532 0.0104153)
(0.000360095 -0.00108975 0.0103926)
(0.000118259 -0.00107783 0.0103807)
(-0.000118259 -0.00107783 0.0103807)
(-0.000360095 -0.00108975 0.0103926)
(-0.000613327 -0.00111532 0.0104153)
(-0.00089921 -0.00114037 0.0104434)
(-0.00121547 -0.00121547 0.0104668)
(0.000688428 0.000688428 0.0125988)
(0.000544262 0.000725216 0.0125652)
(0.000387163 0.000749198 0.0124734)
(0.000231885 0.000760348 0.0123858)
(7.68289e-05 0.000766206 0.0123363)
(-7.68289e-05 0.000766206 0.0123363)
(-0.000231885 0.000760348 0.0123858)
(-0.000387163 0.000749198 0.0124734)
(-0.000544262 0.000725216 0.0125652)
(-0.000688428 0.000688428 0.0125988)
(0.000725216 0.000544262 0.0125652)
(0.000565183 0.000565183 0.0124072)
(0.000399126 0.000575423 0.0122295)
(0.000237279 0.000579265 0.0120949)
(7.85755e-05 0.000581171 0.0120249)
(-7.85755e-05 0.000581171 0.0120249)
(-0.000237279 0.000579265 0.0120949)
(-0.000399126 0.000575423 0.0122295)
(-0.000565183 0.000565183 0.0124072)
(-0.000725216 0.000544262 0.0125652)
(0.000749198 0.000387163 0.0124734)
(0.000575423 0.000399126 0.0122295)
(0.00040406 0.00040406 0.0120065)
(0.000239385 0.000405637 0.0118509)
(7.92397e-05 0.000406313 0.011773)
(-7.92397e-05 0.000406313 0.011773)
(-0.000239385 0.000405637 0.0118509)
(-0.00040406 0.00040406 0.0120065)
(-0.000575423 0.000399126 0.0122295)
(-0.000749198 0.000387163 0.0124734)
(0.000760348 0.000231885 0.0123858)
(0.000579265 0.000237279 0.0120949)
(0.000405637 0.000239385 0.0118509)
(0.000240025 0.000240025 0.0116875)
(7.94456e-05 0.000240278 0.0116071)
(-7.94455e-05 0.000240278 0.0116071)
(-0.000240025 0.000240025 0.0116875)
(-0.000405637 0.000239385 0.0118509)
(-0.000579265 0.000237279 0.0120949)
(-0.000760348 0.000231885 0.0123858)
(0.000766206 7.68289e-05 0.0123363)
(0.000581171 7.85755e-05 0.0120249)
(0.000406313 7.92397e-05 0.011773)
(0.000240278 7.94455e-05 0.0116071)
(7.9524e-05 7.9524e-05 0.011526)
(-7.9524e-05 7.9524e-05 0.011526)
(-0.000240278 7.94456e-05 0.0116071)
(-0.000406313 7.92397e-05 0.011773)
(-0.000581171 7.85755e-05 0.0120249)
(-0.000766206 7.68289e-05 0.0123363)
(0.000766206 -7.68289e-05 0.0123363)
(0.000581171 -7.85755e-05 0.0120249)
(0.000406313 -7.92397e-05 0.011773)
(0.000240278 -7.94455e-05 0.0116071)
(7.9524e-05 -7.9524e-05 0.011526)
(-7.9524e-05 -7.9524e-05 0.011526)
(-0.000240278 -7.94455e-05 0.0116071)
(-0.000406313 -7.92397e-05 0.011773)
(-0.000581171 -7.85755e-05 0.0120249)
(-0.000766206 -7.68289e-05 0.0123363)
(0.000760348 -0.000231885 0.0123858)
(0.000579265 -0.000237279 0.0120949)
(0.000405637 -0.000239385 0.0118509)
(0.000240025 -0.000240025 0.0116875)
(7.94456e-05 -0.000240278 0.0116071)
(-7.94455e-05 -0.000240278 0.0116071)
(-0.000240025 -0.000240025 0.0116875)
(-0.000405637 -0.000239385 0.0118509)
(-0.000579265 -0.000237279 0.0120949)
(-0.000760348 -0.000231885 0.0123858)
(0.000749198 -0.000387163 0.0124734)
(0.000575424 -0.000399126 0.0122295)
(0.00040406 -0.00040406 0.0120065)
(0.000239385 -0.000405637 0.0118509)
(7.92397e-05 -0.000406313 0.011773)
(-7.92397e-05 -0.000406313 0.011773)
(-0.000239385 -0.000405637 0.0118509)
(-0.00040406 -0.00040406 0.0120065)
(-0.000575423 -0.000399126 0.0122295)
(-0.000749198 -0.000387163 0.0124734)
(0.000725216 -0.000544262 0.0125652)
(0.000565183 -0.000565183 0.0124072)
(0.000399126 -0.000575423 0.0122295)
(0.000237279 -0.000579265 0.0120949)
(7.85755e-05 -0.000581171 0.0120249)
(-7.85755e-05 -0.000581171 0.0120249)
(-0.000237279 -0.000579265 0.0120949)
(-0.000399126 -0.000575423 0.0122295)
(-0.000565183 -0.000565183 0.0124072)
(-0.000725216 -0.000544262 0.0125652)
(0.000688428 -0.000688428 0.0125988)
(0.000544262 -0.000725216 0.0125652)
(0.000387163 -0.000749198 0.0124734)
(0.000231885 -0.000760348 0.0123858)
(7.68289e-05 -0.000766206 0.0123363)
(-7.68289e-05 -0.000766206 0.0123363)
(-0.000231885 -0.000760348 0.0123858)
(-0.000387163 -0.000749198 0.0124734)
(-0.000544262 -0.000725216 0.0125652)
(-0.000688428 -0.000688428 0.0125988)
(0.000436892 0.000436892 0.0124693)
(0.000366669 0.000489703 0.0126537)
(0.000276277 0.00052735 0.0126948)
(0.000171368 0.000550757 0.0126821)
(5.78167e-05 0.0005626 0.0126662)
(-5.78167e-05 0.0005626 0.0126662)
(-0.000171368 0.000550757 0.0126821)
(-0.000276277 0.00052735 0.0126948)
(-0.000366669 0.000489703 0.0126537)
(-0.000436892 0.000436892 0.0124693)
(0.000489703 0.000366669 0.0126537)
(0.000411652 0.000411652 0.0126877)
(0.000308529 0.000441773 0.012619)
(0.000190695 0.00045978 0.0125446)
(6.43674e-05 0.0004686 0.0125017)
(-6.43674e-05 0.0004686 0.0125017)
(-0.000190695 0.00045978 0.0125446)
(-0.000308529 0.000441773 0.012619)
(-0.000411652 0.000411652 0.0126877)
(-0.000489703 0.000366669 0.0126537)
(0.00052735 0.000276277 0.0126948)
(0.000441773 0.000308529 0.012619)
(0.000330215 0.000330215 0.0124889)
(0.000203647 0.000343073 0.0123853)
(6.87274e-05 0.000349221 0.0123311)
(-6.87274e-05 0.000349221 0.0123311)
(-0.000203647 0.000343073 0.0123853)
(-0.000330215 0.000330215 0.0124889)
(-0.000441773 0.000308529 0.012619)
(-0.00052735 0.000276277 0.0126948)
(0.000550757 0.000171368 0.0126821)
(0.00045978 0.000190695 0.0125446)
(0.000343073 0.000203647 0.0123853)
(0.000211313 0.000211313 0.01227)
(7.12951e-05 0.000214927 0.0122119)
(-7.12951e-05 0.000214927 0.0122119)
(-0.000211313 0.000211313 0.01227)
(-0.000343073 0.000203647 0.0123853)
(-0.00045978 0.000190695 0.0125446)
(-0.000550757 0.000171368 0.0126821)
(0.0005626 5.78167e-05 0.0126662)
(0.0004686 6.43674e-05 0.0125017)
(0.000349221 6.87274e-05 0.0123311)
(0.000214927 7.12951e-05 0.0122119)
(7.24944e-05 7.24944e-05 0.0121526)
(-7.24944e-05 7.24944e-05 0.0121526)
(-0.000214927 7.12951e-05 0.0122119)
(-0.000349221 6.87274e-05 0.0123311)
(-0.0004686 6.43674e-05 0.0125017)
(-0.0005626 5.78167e-05 0.0126662)
(0.0005626 -5.78167e-05 0.0126662)
(0.0004686 -6.43674e-05 0.0125017)
(0.000349221 -6.87274e-05 0.0123311)
(0.000214927 -7.12951e-05 0.0122119)
(7.24944e-05 -7.24944e-05 0.0121526)
(-7.24944e-05 -7.24944e-05 0.0121526)
(-0.000214927 -7.12951e-05 0.0122119)
(-0.000349221 -6.87274e-05 0.0123311)
(-0.0004686 -6.43674e-05 0.0125017)
(-0.0005626 -5.78167e-05 0.0126662)
(0.000550757 -0.000171368 0.0126821)
(0.00045978 -0.000190695 0.0125446)
(0.000343073 -0.000203647 0.0123853)
(0.000211313 -0.000211313 0.01227)
(7.12951e-05 -0.000214927 0.0122119)
(-7.12951e-05 -0.000214927 0.0122119)
(-0.000211313 -0.000211313 0.01227)
(-0.000343073 -0.000203647 0.0123853)
(-0.00045978 -0.000190695 0.0125446)
(-0.000550757 -0.000171368 0.0126821)
(0.00052735 -0.000276277 0.0126948)
(0.000441773 -0.000308529 0.012619)
(0.000330215 -0.000330215 0.0124889)
(0.000203647 -0.000343073 0.0123853)
(6.87274e-05 -0.000349221 0.0123311)
(-6.87274e-05 -0.000349221 0.0123311)
(-0.000203647 -0.000343073 0.0123853)
(-0.000330215 -0.000330215 0.0124889)
(-0.000441773 -0.000308529 0.012619)
(-0.00052735 -0.000276277 0.0126948)
(0.000489703 -0.000366669 0.0126537)
(0.000411652 -0.000411652 0.0126877)
(0.000308529 -0.000441773 0.012619)
(0.000190695 -0.00045978 0.0125446)
(6.43674e-05 -0.0004686 0.0125017)
(-6.43674e-05 -0.0004686 0.0125017)
(-0.000190695 -0.00045978 0.0125446)
(-0.000308529 -0.000441773 0.012619)
(-0.000411652 -0.000411652 0.0126877)
(-0.000489703 -0.000366669 0.0126537)
(0.000436892 -0.000436892 0.0124693)
(0.000366669 -0.000489703 0.0126537)
(0.000276277 -0.00052735 0.0126948)
(0.000171368 -0.000550757 0.0126821)
(5.78167e-05 -0.0005626 0.0126662)
(-5.78167e-05 -0.0005626 0.0126662)
(-0.000171368 -0.000550757 0.0126821)
(-0.000276277 -0.00052735 0.0126948)
(-0.000366669 -0.000489703 0.0126537)
(-0.000436892 -0.000436892 0.0124693)
(0.000162858 0.000162858 0.0126257)
(0.000146177 0.000202096 0.0128927)
(0.000117438 0.000230808 0.012996)
(7.54503e-05 0.000250842 0.0130235)
(2.5917e-05 0.000261047 0.0130271)
(-2.5917e-05 0.000261047 0.0130271)
(-7.54503e-05 0.000250842 0.0130235)
(-0.000117438 0.000230808 0.012996)
(-0.000146177 0.000202096 0.0128927)
(-0.000162858 0.000162858 0.0126257)
(0.000202096 0.000146177 0.0128927)
(0.000183171 0.000183171 0.0130235)
(0.000145655 0.000210702 0.0130224)
(9.34007e-05 0.000228856 0.0129902)
(3.20911e-05 0.000237974 0.0129675)
(-3.20911e-05 0.000237974 0.0129675)
(-9.34007e-05 0.000228856 0.0129902)
(-0.000145655 0.000210702 0.0130224)
(-0.000183171 0.000183171 0.0130235)
(-0.000202096 0.000146177 0.0128927)
(0.000230808 0.000117438 0.012996)
(0.000210702 0.000145655 0.0130224)
(0.000167303 0.000167303 0.0129609)
(0.000107071 0.000181437 0.0128992)
(3.67762e-05 0.000188454 0.0128648)
(-3.67762e-05 0.000188454 0.0128648)
(-0.000107071 0.000181437 0.0128992)
(-0.000167303 0.000167303 0.0129609)
(-0.000210702 0.000145655 0.0130224)
(-0.000230808 0.000117438 0.012996)
(0.000250842 7.54503e-05 0.0130235)
(0.000228856 9.34007e-05 0.0129902)
(0.000181437 0.000107071 0.0128992)
(0.000115957 0.000115957 0.0128247)
(3.98107e-05 0.000120333 0.0127856)
(-3.98107e-05 0.000120333 0.0127856)
(-0.000115957 0.000115957 0.0128247)
(-0.000181437 0.000107071 0.0128992)
(-0.000228856 9.34007e-05 0.0129902)
(-0.000250842 7.54503e-05 0.0130235)
(0.000261047 2.5917e-05 0.0130271)
(0.000237974 3.20911e-05 0.0129675)
(0.000188454 3.67762e-05 0.0128648)
(0.000120333 3.98107e-05 0.0127856)
(4.12979e-05 4.12979e-05 0.0127449)
(-4.12978e-05 4.12979e-05 0.0127449)
(-0.000120333 3.98107e-05 0.0127856)
(-0.000188454 3.67762e-05 0.0128648)
(-0.000237974 3.20911e-05 0.0129675)
(-0.000261047 2.59169e-05 0.0130271)
(0.000261047 -2.5917e-05 0.0130271)
(0.000237974 -3.20911e-05 0.0129675)
(0.000188454 -3.67762e-05 0.0128648)
(0.000120333 -3.98107e-05 0.0127856)
(4.12979e-05 -4.12978e-05 0.0127449)
(-4.12978e-05 -4.12978e-05 0.0127449)
(-0.000120333 -3.98107e-05 0.0127856)
(-0.000188454 -3.67762e-05 0.0128648)
(-0.000237974 -3.20911e-05 0.0129675)
(-0.000261047 -2.5917e-05 0.0130271)
(0.000250842 -7.54503e-05 0.0130235)
(0.000228856 -9.34007e-05 0.0129902)
(0.000181437 -0.000107071 0.0128992)
(0.000115957 -0.000115957 0.0128247)
(3.98107e-05 -0.000120333 0.0127856)
(-3.98107e-05 -0.000120333 0.0127856)
(-0.000115957 -0.000115957 0.0128247)
(-0.000181437 -0.000107071 0.0128992)
(-0.000228856 -9.34007e-05 0.0129902)
(-0.000250842 -7.54503e-05 0.0130235)
(0.000230808 -0.000117438 0.012996)
(0.000210702 -0.000145655 0.0130224)
(0.000167303 -0.000167303 0.0129609)
(0.000107071 -0.000181437 0.0128992)
(3.67762e-05 -0.000188454 0.0128648)
(-3.67762e-05 -0.000188454 0.0128648)
(-0.000107071 -0.000181437 0.0128992)
(-0.000167303 -0.000167303 0.0129609)
(-0.000210702 -0.000145655 0.0130224)
(-0.000230808 -0.000117437 0.012996)
(0.000202096 -0.000146177 0.0128927)
(0.000183171 -0.000183171 0.0130235)
(0.000145655 -0.000210702 0.0130224)
(9.34007e-05 -0.000228856 0.0129902)
(3.20911e-05 -0.000237974 0.0129675)
(-3.20911e-05 -0.000237974 0.0129675)
(-9.34007e-05 -0.000228856 0.0129902)
(-0.000145655 -0.000210702 0.0130224)
(-0.000183171 -0.000183171 0.0130235)
(-0.000202096 -0.000146177 0.0128927)
(0.000162858 -0.000162858 0.0126257)
(0.000146177 -0.000202096 0.0128927)
(0.000117438 -0.000230808 0.012996)
(7.54503e-05 -0.000250842 0.0130235)
(2.5917e-05 -0.000261047 0.0130271)
(-2.5917e-05 -0.000261047 0.0130271)
(-7.54503e-05 -0.000250842 0.0130235)
(-0.000117437 -0.000230808 0.012996)
(-0.000146177 -0.000202096 0.0128927)
(-0.000162858 -0.000162858 0.0126257)
(6.23831e-05 6.23831e-05 0.0125637)
(5.78225e-05 8.0008e-05 0.0128773)
(4.83586e-05 9.3786e-05 0.0130209)
(3.17154e-05 0.000103879 0.0130775)
(1.10103e-05 0.000109071 0.0130961)
(-1.10103e-05 0.000109071 0.0130961)
(-3.17154e-05 0.000103879 0.0130775)
(-4.83585e-05 9.3786e-05 0.0130209)
(-5.78225e-05 8.0008e-05 0.0128773)
(-6.23831e-05 6.23831e-05 0.0125637)
(8.0008e-05 5.78226e-05 0.0128773)
(7.63617e-05 7.63617e-05 0.0130724)
(6.31004e-05 9.08201e-05 0.0131236)
(4.13555e-05 0.000100742 0.0131277)
(1.43558e-05 0.000105802 0.0131233)
(-1.43558e-05 0.000105802 0.0131233)
(-4.13555e-05 0.000100742 0.0131277)
(-6.31004e-05 9.08201e-05 0.0131236)
(-7.63617e-05 7.63617e-05 0.0130724)
(-8.0008e-05 5.78226e-05 0.0128773)
(9.3786e-05 4.83586e-05 0.0130209)
(9.08201e-05 6.31004e-05 0.0131236)
(7.49568e-05 7.49569e-05 0.013122)
(4.90607e-05 8.3001e-05 0.0131004)
(1.70274e-05 8.70712e-05 0.013086)
(-1.70274e-05 8.70712e-05 0.013086)
(-4.90606e-05 8.3001e-05 0.0131004)
(-7.49568e-05 7.49568e-05 0.013122)
(-9.08201e-05 6.31004e-05 0.0131236)
(-9.3786e-05 4.83586e-05 0.0130209)
(0.000103879 3.17154e-05 0.0130775)
(0.000100742 4.13555e-05 0.0131277)
(8.3001e-05 4.90607e-05 0.0131004)
(5.4255e-05 5.4255e-05 0.0130679)
(1.88235e-05 5.68678e-05 0.0130494)
(-1.88235e-05 5.68678e-05 0.0130494)
(-5.4255e-05 5.4255e-05 0.0130679)
(-8.3001e-05 4.90607e-05 0.0131004)
(-0.000100742 4.13555e-05 0.0131277)
(-0.000103879 3.17154e-05 0.0130775)
(0.000109071 1.10103e-05 0.0130961)
(0.000105802 1.43558e-05 0.0131233)
(8.70712e-05 1.70274e-05 0.013086)
(5.68678e-05 1.88235e-05 0.0130494)
(1.97243e-05 1.97243e-05 0.0130294)
(-1.97243e-05 1.97243e-05 0.0130294)
(-5.68678e-05 1.88235e-05 0.0130494)
(-8.70712e-05 1.70274e-05 0.013086)
(-0.000105802 1.43558e-05 0.0131233)
(-0.000109071 1.10103e-05 0.0130961)
(0.000109071 -1.10103e-05 0.0130961)
(0.000105802 -1.43558e-05 0.0131233)
(8.70712e-05 -1.70274e-05 0.013086)
(5.68678e-05 -1.88235e-05 0.0130494)
(1.97243e-05 -1.97243e-05 0.0130294)
(-1.97243e-05 -1.97243e-05 0.0130294)
(-5.68678e-05 -1.88235e-05 0.0130494)
(-8.70712e-05 -1.70274e-05 0.013086)
(-0.000105802 -1.43558e-05 0.0131233)
(-0.000109071 -1.10103e-05 0.0130961)
(0.000103879 -3.17154e-05 0.0130775)
(0.000100742 -4.13555e-05 0.0131277)
(8.3001e-05 -4.90607e-05 0.0131004)
(5.4255e-05 -5.4255e-05 0.0130679)
(1.88235e-05 -5.68678e-05 0.0130494)
(-1.88235e-05 -5.68678e-05 0.0130494)
(-5.4255e-05 -5.4255e-05 0.0130679)
(-8.3001e-05 -4.90607e-05 0.0131004)
(-0.000100742 -4.13555e-05 0.0131277)
(-0.000103879 -3.17153e-05 0.0130775)
(9.3786e-05 -4.83586e-05 0.0130209)
(9.08201e-05 -6.31004e-05 0.0131236)
(7.49568e-05 -7.49568e-05 0.013122)
(4.90607e-05 -8.3001e-05 0.0131004)
(1.70274e-05 -8.70712e-05 0.013086)
(-1.70274e-05 -8.70712e-05 0.013086)
(-4.90607e-05 -8.3001e-05 0.0131004)
(-7.49568e-05 -7.49568e-05 0.013122)
(-9.08201e-05 -6.31003e-05 0.0131236)
(-9.3786e-05 -4.83585e-05 0.0130209)
(8.0008e-05 -5.78226e-05 0.0128773)
(7.63617e-05 -7.63617e-05 0.0130724)
(6.31004e-05 -9.08201e-05 0.0131236)
(4.13555e-05 -0.000100742 0.0131277)
(1.43558e-05 -0.000105802 0.0131233)
(-1.43558e-05 -0.000105802 0.0131233)
(-4.13555e-05 -0.000100742 0.0131277)
(-6.31003e-05 -9.08201e-05 0.0131236)
(-7.63616e-05 -7.63616e-05 0.0130724)
(-8.00081e-05 -5.78225e-05 0.0128773)
(6.23831e-05 -6.23831e-05 0.0125637)
(5.78226e-05 -8.0008e-05 0.0128773)
(4.83586e-05 -9.3786e-05 0.0130209)
(3.17154e-05 -0.000103879 0.0130775)
(1.10103e-05 -0.000109071 0.0130961)
(-1.10103e-05 -0.000109071 0.0130961)
(-3.17153e-05 -0.000103879 0.0130775)
(-4.83585e-05 -9.3786e-05 0.0130209)
(-5.78225e-05 -8.00081e-05 0.0128773)
(-6.23831e-05 -6.23831e-05 0.0125637)
(1.99072e-05 1.99073e-05 0.0125237)
(1.97185e-05 2.76134e-05 0.0128491)
(1.75401e-05 3.38514e-05 0.0130059)
(1.18601e-05 3.85951e-05 0.0130732)
(4.18214e-06 4.10521e-05 0.0130977)
(-4.18214e-06 4.10521e-05 0.0130977)
(-1.18601e-05 3.85951e-05 0.0130732)
(-1.754e-05 3.38514e-05 0.0130059)
(-1.97185e-05 2.76134e-05 0.0128491)
(-1.99073e-05 1.99073e-05 0.0125237)
(2.76134e-05 1.97185e-05 0.0128491)
(2.83369e-05 2.83369e-05 0.0130672)
(2.46274e-05 3.53227e-05 0.0131401)
(1.66009e-05 4.02784e-05 0.0131605)
(5.83904e-06 4.28356e-05 0.0131647)
(-5.83903e-06 4.28356e-05 0.0131647)
(-1.66009e-05 4.02784e-05 0.0131605)
(-2.46274e-05 3.53227e-05 0.0131401)
(-2.83369e-05 2.83369e-05 0.0130672)
(-2.76134e-05 1.97185e-05 0.0128491)
(3.38514e-05 1.75401e-05 0.0130059)
(3.53227e-05 2.46274e-05 0.0131401)
(3.05508e-05 3.05508e-05 0.0131664)
(2.05336e-05 3.46906e-05 0.0131648)
(7.21377e-06 3.68135e-05 0.0131606)
(-7.21377e-06 3.68135e-05 0.0131606)
(-2.05336e-05 3.46906e-05 0.0131648)
(-3.05508e-05 3.05508e-05 0.0131664)
(-3.53226e-05 2.46274e-05 0.0131401)
(-3.38514e-05 1.754e-05 0.0130059)
(3.85951e-05 1.18601e-05 0.0130732)
(4.02784e-05 1.66009e-05 0.0131605)
(3.46906e-05 2.05336e-05 0.0131648)
(2.32569e-05 2.32569e-05 0.0131544)
(8.16279e-06 2.46451e-05 0.0131471)
(-8.16278e-06 2.46451e-05 0.0131471)
(-2.32569e-05 2.32569e-05 0.0131544)
(-3.46906e-05 2.05336e-05 0.0131648)
(-4.02784e-05 1.66009e-05 0.0131605)
(-3.85951e-05 1.18601e-05 0.0130732)
(4.10521e-05 4.18214e-06 0.0130977)
(4.28356e-05 5.83904e-06 0.0131647)
(3.68135e-05 7.21377e-06 0.0131606)
(2.46451e-05 8.16278e-06 0.0131471)
(8.6451e-06 8.6451e-06 0.0131388)
(-8.64509e-06 8.6451e-06 0.0131388)
(-2.46451e-05 8.16279e-06 0.0131471)
(-3.68135e-05 7.21377e-06 0.0131606)
(-4.28355e-05 5.83903e-06 0.0131647)
(-4.10521e-05 4.18213e-06 0.0130977)
(4.10521e-05 -4.18213e-06 0.0130977)
(4.28356e-05 -5.83903e-06 0.0131647)
(3.68135e-05 -7.21377e-06 0.0131606)
(2.46451e-05 -8.16278e-06 0.0131471)
(8.6451e-06 -8.64509e-06 0.0131388)
(-8.64509e-06 -8.64509e-06 0.0131388)
(-2.46451e-05 -8.16278e-06 0.0131471)
(-3.68135e-05 -7.21377e-06 0.0131606)
(-4.28356e-05 -5.83903e-06 0.0131647)
(-4.10521e-05 -4.18213e-06 0.0130977)
(3.85951e-05 -1.18601e-05 0.0130732)
(4.02784e-05 -1.66009e-05 0.0131605)
(3.46906e-05 -2.05336e-05 0.0131648)
(2.32569e-05 -2.32569e-05 0.0131544)
(8.16279e-06 -2.46451e-05 0.0131471)
(-8.16278e-06 -2.46451e-05 0.0131471)
(-2.32569e-05 -2.32569e-05 0.0131544)
(-3.46906e-05 -2.05336e-05 0.0131648)
(-4.02784e-05 -1.66009e-05 0.0131605)
(-3.85951e-05 -1.18601e-05 0.0130732)
(3.38514e-05 -1.75401e-05 0.0130059)
(3.53227e-05 -2.46274e-05 0.0131401)
(3.05508e-05 -3.05508e-05 0.0131664)
(2.05336e-05 -3.46906e-05 0.0131648)
(7.21377e-06 -3.68135e-05 0.0131606)
(-7.21377e-06 -3.68135e-05 0.0131606)
(-2.05336e-05 -3.46906e-05 0.0131648)
(-3.05508e-05 -3.05508e-05 0.0131664)
(-3.53226e-05 -2.46274e-05 0.0131401)
(-3.38514e-05 -1.754e-05 0.0130059)
(2.76134e-05 -1.97185e-05 0.0128491)
(2.83369e-05 -2.83369e-05 0.0130672)
(2.46274e-05 -3.53227e-05 0.0131401)
(1.66009e-05 -4.02784e-05 0.0131605)
(5.83902e-06 -4.28355e-05 0.0131647)
(-5.83903e-06 -4.28356e-05 0.0131647)
(-1.66009e-05 -4.02784e-05 0.0131605)
(-2.46274e-05 -3.53226e-05 0.0131401)
(-2.83369e-05 -2.83369e-05 0.0130672)
(-2.76134e-05 -1.97185e-05 0.0128491)
(1.99072e-05 -1.99073e-05 0.0125237)
(1.97185e-05 -2.76134e-05 0.0128491)
(1.75401e-05 -3.38514e-05 0.0130059)
(1.18601e-05 -3.85951e-05 0.0130732)
(4.18213e-06 -4.10521e-05 0.0130977)
(-4.18213e-06 -4.10521e-05 0.0130977)
(-1.18601e-05 -3.85951e-05 0.0130732)
(-1.754e-05 -3.38514e-05 0.0130059)
(-1.97185e-05 -2.76134e-05 0.0128491)
(-1.99073e-05 -1.99073e-05 0.0125237)
(5.10803e-06 5.10803e-06 0.012509)
(5.52273e-06 7.95867e-06 0.0128375)
(5.30643e-06 1.03533e-05 0.0129985)
(3.71022e-06 1.22724e-05 0.0130697)
(1.33374e-06 1.32713e-05 0.0130964)
(-1.33374e-06 1.32713e-05 0.0130964)
(-3.71022e-06 1.22724e-05 0.0130697)
(-5.30642e-06 1.03533e-05 0.0129985)
(-5.52274e-06 7.95868e-06 0.0128375)
(-5.10804e-06 5.10803e-06 0.012509)
(7.95867e-06 5.52274e-06 0.0128375)
(8.9157e-06 8.9157e-06 0.0130633)
(8.21605e-06 1.18075e-05 0.0131444)
(5.71146e-06 1.39496e-05 0.0131713)
(2.03901e-06 1.50728e-05 0.013179)
(-2.039e-06 1.50728e-05 0.013179)
(-5.71145e-06 1.39496e-05 0.0131713)
(-8.21605e-06 1.18075e-05 0.0131444)
(-8.91571e-06 8.91571e-06 0.0130633)
(-7.95867e-06 5.52274e-06 0.0128375)
(1.03533e-05 5.30643e-06 0.0129985)
(1.18075e-05 8.21605e-06 0.0131444)
(1.0776e-05 1.0776e-05 0.013182)
(7.45846e-06 1.26373e-05 0.0131889)
(2.65611e-06 1.36094e-05 0.0131892)
(-2.6561e-06 1.36094e-05 0.0131892)
(-7.45845e-06 1.26373e-05 0.0131889)
(-1.0776e-05 1.0776e-05 0.013182)
(-1.18075e-05 8.21605e-06 0.0131444)
(-1.03533e-05 5.30643e-06 0.0129985)
(1.22724e-05 3.71022e-06 0.0130697)
(1.39496e-05 5.71146e-06 0.0131713)
(1.26373e-05 7.45846e-06 0.0131889)
(8.71485e-06 8.71485e-06 0.0131881)
(3.0987e-06 9.36775e-06 0.0131858)
(-3.09868e-06 9.36774e-06 0.0131858)
(-8.71484e-06 8.71485e-06 0.0131881)
(-1.26373e-05 7.45846e-06 0.0131889)
(-1.39496e-05 5.71146e-06 0.0131713)
(-1.22724e-05 3.71022e-06 0.0130697)
(1.32713e-05 1.33374e-06 0.0130964)
(1.50728e-05 2.03902e-06 0.013179)
(1.36094e-05 2.65611e-06 0.0131892)
(9.36774e-06 3.0987e-06 0.0131858)
(3.32822e-06 3.32822e-06 0.0131827)
(-3.32821e-06 3.32822e-06 0.0131827)
(-9.36773e-06 3.0987e-06 0.0131858)
(-1.36094e-05 2.65611e-06 0.0131892)
(-1.50728e-05 2.03901e-06 0.013179)
(-1.32713e-05 1.33374e-06 0.0130964)
(1.32713e-05 -1.33373e-06 0.0130964)
(1.50728e-05 -2.039e-06 0.013179)
(1.36094e-05 -2.6561e-06 0.0131892)
(9.36774e-06 -3.09869e-06 0.0131858)
(3.32822e-06 -3.32821e-06 0.0131827)
(-3.32821e-06 -3.32821e-06 0.0131827)
(-9.36773e-06 -3.09869e-06 0.0131858)
(-1.36094e-05 -2.6561e-06 0.0131892)
(-1.50728e-05 -2.03901e-06 0.013179)
(-1.32713e-05 -1.33374e-06 0.0130964)
(1.22724e-05 -3.71022e-06 0.0130697)
(1.39496e-05 -5.71145e-06 0.0131713)
(1.26373e-05 -7.45845e-06 0.0131889)
(8.71485e-06 -8.71484e-06 0.0131881)
(3.0987e-06 -9.36773e-06 0.0131858)
(-3.09869e-06 -9.36773e-06 0.0131858)
(-8.71484e-06 -8.71484e-06 0.0131881)
(-1.26373e-05 -7.45845e-06 0.0131889)
(-1.39496e-05 -5.71145e-06 0.0131713)
(-1.22724e-05 -3.71021e-06 0.0130697)
(1.03533e-05 -5.30643e-06 0.0129985)
(1.18075e-05 -8.21605e-06 0.0131444)
(1.0776e-05 -1.0776e-05 0.013182)
(7.45846e-06 -1.26373e-05 0.0131889)
(2.65611e-06 -1.36094e-05 0.0131892)
(-2.6561e-06 -1.36094e-05 0.0131892)
(-7.45845e-06 -1.26373e-05 0.0131889)
(-1.0776e-05 -1.0776e-05 0.013182)
(-1.18075e-05 -8.21604e-06 0.0131444)
(-1.03533e-05 -5.30641e-06 0.0129985)
(7.95867e-06 -5.52274e-06 0.0128375)
(8.91571e-06 -8.91571e-06 0.0130633)
(8.21606e-06 -1.18075e-05 0.0131444)
(5.71145e-06 -1.39496e-05 0.0131713)
(2.03901e-06 -1.50728e-05 0.013179)
(-2.039e-06 -1.50728e-05 0.013179)
(-5.71145e-06 -1.39496e-05 0.0131713)
(-8.21604e-06 -1.18075e-05 0.0131444)
(-8.91569e-06 -8.91569e-06 0.0130633)
(-7.95867e-06 -5.52272e-06 0.0128375)
(5.10803e-06 -5.10803e-06 0.012509)
(5.52274e-06 -7.95868e-06 0.0128375)
(5.30643e-06 -1.03533e-05 0.0129985)
(3.71022e-06 -1.22724e-05 0.0130697)
(1.33374e-06 -1.32713e-05 0.0130964)
(-1.33374e-06 -1.32713e-05 0.0130964)
(-3.71022e-06 -1.22724e-05 0.0130697)
(-5.30642e-06 -1.03533e-05 0.0129985)
(-5.52272e-06 -7.95867e-06 0.0128375)
(-5.10804e-06 -5.10803e-06 0.012509)
(1.14488e-06 1.14488e-06 0.0125034)
(1.38392e-06 2.05831e-06 0.0128324)
(1.45799e-06 2.84594e-06 0.0129947)
(1.05409e-06 3.51338e-06 0.0130672)
(3.87689e-07 3.86061e-06 0.0130946)
(-3.87685e-07 3.86061e-06 0.0130946)
(-1.05409e-06 3.51338e-06 0.0130672)
(-1.45799e-06 2.84593e-06 0.0129947)
(-1.38392e-06 2.05831e-06 0.0128324)
(-1.14488e-06 1.14488e-06 0.0125034)
(2.05831e-06 1.38392e-06 0.0128324)
(2.54096e-06 2.54096e-06 0.0130606)
(2.48481e-06 3.56697e-06 0.0131447)
(1.77722e-06 4.35781e-06 0.013174)
(6.43996e-07 4.77784e-06 0.0131832)
(-6.43993e-07 4.77784e-06 0.0131832)
(-1.77721e-06 4.3578e-06 0.013174)
(-2.48481e-06 3.56697e-06 0.0131447)
(-2.54096e-06 2.54096e-06 0.0130606)
(-2.05831e-06 1.38392e-06 0.0128324)
(2.84594e-06 1.45799e-06 0.0129947)
(3.56697e-06 2.48481e-06 0.0131447)
(3.43006e-06 3.43006e-06 0.0131866)
(2.43948e-06 4.14411e-06 0.0131969)
(8.80073e-07 4.52316e-06 0.013199)
(-8.80072e-07 4.52316e-06 0.013199)
(-2.43948e-06 4.1441e-06 0.0131969)
(-3.43006e-06 3.43006e-06 0.0131866)
(-3.56697e-06 2.48481e-06 0.0131447)
(-2.84593e-06 1.45799e-06 0.0129947)
(3.51338e-06 1.05409e-06 0.0130672)
(4.35781e-06 1.77722e-06 0.013174)
(4.14411e-06 2.43948e-06 0.0131969)
(2.93405e-06 2.93405e-06 0.0132001)
(1.05611e-06 3.19577e-06 0.0131999)
(-1.05611e-06 3.19577e-06 0.0131999)
(-2.93405e-06 2.93405e-06 0.0132001)
(-4.1441e-06 2.43948e-06 0.0131969)
(-4.3578e-06 1.77722e-06 0.013174)
(-3.51337e-06 1.05409e-06 0.0130672)
(3.86061e-06 3.8769e-07 0.0130946)
(4.77784e-06 6.43997e-07 0.0131832)
(4.52316e-06 8.80073e-07 0.013199)
(3.19577e-06 1.05612e-06 0.0131999)
(1.14922e-06 1.14922e-06 0.0131992)
(-1.14922e-06 1.14922e-06 0.0131992)
(-3.19576e-06 1.05612e-06 0.0131999)
(-4.52315e-06 8.80075e-07 0.013199)
(-4.77783e-06 6.43997e-07 0.0131832)
(-3.8606e-06 3.8769e-07 0.0130946)
(3.86061e-06 -3.87685e-07 0.0130946)
(4.77784e-06 -6.43992e-07 0.0131832)
(4.52315e-06 -8.8007e-07 0.013199)
(3.19577e-06 -1.05611e-06 0.0131999)
(1.14922e-06 -1.14922e-06 0.0131992)
(-1.14922e-06 -1.14922e-06 0.0131992)
(-3.19576e-06 -1.05611e-06 0.0131999)
(-4.52315e-06 -8.80068e-07 0.013199)
(-4.77783e-06 -6.43991e-07 0.0131832)
(-3.8606e-06 -3.87688e-07 0.0130946)
(3.51338e-06 -1.05409e-06 0.0130672)
(4.3578e-06 -1.77721e-06 0.013174)
(4.1441e-06 -2.43948e-06 0.0131969)
(2.93405e-06 -2.93405e-06 0.0132001)
(1.05612e-06 -3.19576e-06 0.0131999)
(-1.05611e-06 -3.19576e-06 0.0131999)
(-2.93404e-06 -2.93404e-06 0.0132001)
(-4.1441e-06 -2.43947e-06 0.0131969)
(-4.3578e-06 -1.77721e-06 0.013174)
(-3.51337e-06 -1.05409e-06 0.0130672)
(2.84594e-06 -1.45799e-06 0.0129947)
(3.56697e-06 -2.48482e-06 0.0131447)
(3.43006e-06 -3.43006e-06 0.0131866)
(2.43948e-06 -4.1441e-06 0.0131969)
(8.80074e-07 -4.52315e-06 0.013199)
(-8.80069e-07 -4.52315e-06 0.013199)
(-2.43947e-06 -4.1441e-06 0.0131969)
(-3.43005e-06 -3.43005e-06 0.0131866)
(-3.56697e-06 -2.48481e-06 0.0131447)
(-2.84593e-06 -1.45799e-06 0.0129947)
(2.05831e-06 -1.38392e-06 0.0128324)
(2.54096e-06 -2.54096e-06 0.0130606)
(2.48482e-06 -3.56697e-06 0.0131447)
(1.77722e-06 -4.3578e-06 0.013174)
(6.43995e-07 -4.77783e-06 0.0131832)
(-6.43993e-07 -4.77783e-06 0.0131832)
(-1.77721e-06 -4.3578e-06 0.013174)
(-2.48481e-06 -3.56696e-06 0.0131447)
(-2.54096e-06 -2.54096e-06 0.0130606)
(-2.05831e-06 -1.38392e-06 0.0128324)
(1.14488e-06 -1.14488e-06 0.0125034)
(1.38392e-06 -2.05831e-06 0.0128324)
(1.45799e-06 -2.84593e-06 0.0129947)
(1.05409e-06 -3.51337e-06 0.0130672)