/*--------------------------------*- C++ -*----------------------------------*\
| =========                 |                                                 |
| \\      /  F ield         | OpenFOAM: The Open Source CFD Toolbox           |
|  \\    /   O peration     | Version:  2412                                  |
|   \\  /    A nd           | Website:  www.openfoam.com                      |
|    \\/     M anipulation  |                                                 |
\*---------------------------------------------------------------------------*/
FoamFile
{
    version     2.0;
    format      ascii;
    arch        "LSB;label=32;scalar=64";
    class       surfaceScalarField;
    location    "1.9";
    object      phi;
}
// * * * * * * * * * * * * * * * * * * * * * * * * * * * * * * * * * * * * * //

dimensions      [0 3 -1 0 0 0 0];

oriented        oriented;

internalField   nonuniform List<scalar> 
43700
(
1.39315e-07
1.39315e-07
5.34142e-07
-1.71377e-07
-1.71377e-07
1.01691e-07
1.21563e-07
5.73824e-07
-1.48379e-07
6.71576e-08
1.11715e-07
6.03251e-07
-1.41002e-07
3.32767e-08
1.05148e-07
6.2276e-07
-1.34315e-07
-1.96183e-15
1.02077e-07
6.32522e-07
-1.31394e-07
-3.32767e-08
1.02077e-07
6.32522e-07
-1.31394e-07
-6.71576e-08
1.05148e-07
6.2276e-07
-1.34315e-07
-1.01691e-07
1.11715e-07
6.03251e-07
-1.41002e-07
-1.39315e-07
1.21563e-07
5.73824e-07
-1.48379e-07
1.39315e-07
5.34142e-07
-1.71377e-07
-1.71377e-07
1.21563e-07
1.01691e-07
5.73824e-07
-1.48379e-07
9.04396e-08
9.04396e-08
6.0809e-07
5.97865e-08
8.24954e-08
6.33563e-07
2.96724e-08
7.72132e-08
6.50546e-07
-8.14673e-16
7.46649e-08
6.59057e-07
-2.96724e-08
7.46649e-08
6.59057e-07
-5.97865e-08
7.72131e-08
6.50546e-07
-9.04396e-08
8.24954e-08
6.33563e-07
-1.21563e-07
9.04396e-08
6.0809e-07
1.01691e-07
5.73824e-07
-1.48379e-07
1.11715e-07
6.71576e-08
6.03251e-07
-1.41002e-07
8.24954e-08
5.97865e-08
6.33563e-07
5.42812e-08
5.42812e-08
6.56301e-07
2.68939e-08
5.06215e-08
6.71542e-07
8.89171e-16
4.88397e-08
6.79197e-07
-2.68939e-08
4.88397e-08
6.79197e-07
-5.42813e-08
5.06215e-08
6.71542e-07
-8.24954e-08
5.42812e-08
6.56301e-07
-1.11715e-07
5.97865e-08
6.33563e-07
6.71576e-08
6.03251e-07
-1.41002e-07
1.05148e-07
3.32767e-08
6.2276e-07
-1.34315e-07
7.72131e-08
2.96724e-08
6.50546e-07
5.06215e-08
2.68939e-08
6.71542e-07
2.50349e-08
2.50349e-08
6.85676e-07
1.44582e-15
2.41255e-08
6.92791e-07
-2.50349e-08
2.41255e-08
6.92791e-07
-5.06215e-08
2.50349e-08
6.85676e-07
-7.72131e-08
2.68939e-08
6.71542e-07
-1.05148e-07
2.96724e-08
6.50546e-07
3.32767e-08
6.2276e-07
-1.34315e-07
1.02077e-07
-3.87032e-15
6.32522e-07
-1.31394e-07
7.46649e-08
-2.29498e-15
6.59057e-07
4.88397e-08
4.06035e-16
6.79197e-07
2.41255e-08
2.60769e-15
6.92791e-07
2.03741e-15
2.76495e-15
6.99643e-07
-2.41254e-08
1.49914e-15
6.99643e-07
-4.88397e-08
1.13807e-15
6.92791e-07
-7.46649e-08
2.56184e-15
6.79197e-07
-1.02077e-07
5.83748e-15
6.59057e-07
3.78934e-15
6.32522e-07
-1.31394e-07
1.02077e-07
-3.32767e-08
6.32522e-07
-1.31394e-07
7.46649e-08
-2.96724e-08
6.59057e-07
4.88397e-08
-2.68939e-08
6.79197e-07
2.41255e-08
-2.50349e-08
6.92791e-07
7.27145e-16
-2.41254e-08
6.99643e-07
-2.41254e-08
-2.41254e-08
6.99643e-07
-4.88397e-08
-2.50349e-08
6.92791e-07
-7.46649e-08
-2.68939e-08
6.79197e-07
-1.02077e-07
-2.96724e-08
6.59057e-07
-3.32767e-08
6.32522e-07
-1.31394e-07
1.05148e-07
-6.71576e-08
6.2276e-07
-1.34315e-07
7.72131e-08
-5.97865e-08
6.50546e-07
5.06215e-08
-5.42812e-08
6.71542e-07
2.50349e-08
-5.06215e-08
6.85676e-07
6.47744e-17
-4.88397e-08
6.92791e-07
-2.50349e-08
-4.88397e-08
6.92791e-07
-5.06215e-08
-5.06215e-08
6.85676e-07
-7.72131e-08
-5.42812e-08
6.71542e-07
-1.05148e-07
-5.97865e-08
6.50546e-07
-6.71576e-08
6.2276e-07
-1.34315e-07
1.11715e-07
-1.01691e-07
6.03251e-07
-1.41002e-07
8.24954e-08
-9.04396e-08
6.33563e-07
5.42812e-08
-8.24954e-08
6.56301e-07
2.68939e-08
-7.72131e-08
6.71542e-07
1.52136e-15
-7.46649e-08
6.79197e-07
-2.68939e-08
-7.46649e-08
6.79197e-07
-5.42812e-08
-7.72131e-08
6.71542e-07
-8.24954e-08
-8.24954e-08
6.56301e-07
-1.11715e-07
-9.04396e-08
6.33563e-07
-1.01691e-07
6.03251e-07
-1.41002e-07
1.21563e-07
-1.39315e-07
5.73824e-07
-1.48379e-07
9.04396e-08
-1.21563e-07
6.0809e-07
5.97865e-08
-1.11715e-07
6.33563e-07
2.96724e-08
-1.05148e-07
6.50546e-07
4.50927e-15
-1.02077e-07
6.59057e-07
-2.96724e-08
-1.02077e-07
6.59057e-07
-5.97865e-08
-1.05148e-07
6.50546e-07
-9.04396e-08
-1.11715e-07
6.33563e-07
-1.21563e-07
-1.21563e-07
6.0809e-07
-1.39315e-07
5.73824e-07
-1.48379e-07
1.39315e-07
5.34142e-07
-1.71377e-07
-1.71377e-07
1.01691e-07
5.73824e-07
-1.48379e-07
6.71576e-08
6.03251e-07
-1.41002e-07
3.32767e-08
6.2276e-07
-1.34315e-07
3.13403e-15
6.32522e-07
-1.31394e-07
-3.32767e-08
6.32522e-07
-1.31394e-07
-6.71576e-08
6.2276e-07
-1.34315e-07
-1.01691e-07
6.03251e-07
-1.41002e-07
-1.39315e-07
5.73824e-07
-1.48379e-07
5.34142e-07
-1.71377e-07
-1.71377e-07
5.49776e-08
5.49776e-08
5.48682e-07
-6.22478e-08
-6.22478e-08
4.37504e-08
5.47649e-08
5.91381e-07
-6.10946e-08
3.05684e-08
5.51724e-08
6.23238e-07
-6.19765e-08
1.56626e-08
5.51605e-08
6.44471e-07
-6.19664e-08
7.37391e-16
5.52199e-08
6.5513e-07
-6.21659e-08
-1.56625e-08
5.52199e-08
6.5513e-07
-6.21659e-08
-3.05684e-08
5.51605e-08
6.44471e-07
-6.19664e-08
-4.37504e-08
5.51724e-08
6.23238e-07
-6.19765e-08
-5.49776e-08
5.47649e-08
5.91381e-07
-6.10946e-08
5.49776e-08
5.48682e-07
-6.22478e-08
-6.22478e-08
5.47649e-08
4.37504e-08
5.91381e-07
-6.10946e-08
4.43552e-08
4.43552e-08
6.2891e-07
3.12347e-08
4.47566e-08
6.57099e-07
1.61074e-08
4.4823e-08
6.76011e-07
4.97021e-16
4.48602e-08
6.85524e-07
-1.61074e-08
4.48602e-08
6.85524e-07
-3.12347e-08
4.48229e-08
6.76011e-07
-4.43552e-08
4.47566e-08
6.57099e-07
-5.47649e-08
4.43552e-08
6.2891e-07
4.37504e-08
5.91381e-07
-6.10946e-08
5.51724e-08
3.05684e-08
6.23238e-07
-6.19765e-08
4.47566e-08
3.12347e-08
6.57099e-07
3.1537e-08
3.1537e-08
6.82741e-07
1.6282e-08
3.15994e-08
7.0002e-07
1.616e-15
3.16145e-08
7.08725e-07
-1.6282e-08
3.16145e-08
7.08725e-07
-3.1537e-08
3.15993e-08
7.0002e-07
-4.47566e-08
3.1537e-08
6.82741e-07
-5.51724e-08
3.12347e-08
6.57099e-07
3.05684e-08
6.23238e-07
-6.19765e-08
5.51605e-08
1.56626e-08
6.44471e-07
-6.19664e-08
4.4823e-08
1.61074e-08
6.76011e-07
3.15993e-08
1.6282e-08
7.0002e-07
1.63202e-08
1.63202e-08
7.16234e-07
3.1147e-15
1.63246e-08
7.24401e-07
-1.63202e-08
1.63246e-08
7.24401e-07
-3.15993e-08
1.63202e-08
7.16234e-07
-4.4823e-08
1.6282e-08
7.0002e-07
-5.51605e-08
1.61074e-08
6.76011e-07
1.56626e-08
6.44471e-07
-6.19664e-08
5.52199e-08
-1.50308e-15
6.5513e-07
-6.21659e-08
4.48602e-08
-2.0699e-15
6.85524e-07
3.16145e-08
1.65902e-15
7.08725e-07
1.63246e-08
4.29742e-15
7.24401e-07
3.22084e-15
3.57783e-15
7.32293e-07
-1.63246e-08
1.89137e-15
7.32293e-07
-3.16145e-08
5.69706e-16
7.24401e-07
-4.48602e-08
3.15277e-15
7.08725e-07
-5.52199e-08
7.33425e-15
6.85524e-07
4.7159e-15
6.5513e-07
-6.21659e-08
5.52199e-08
-1.56626e-08
6.5513e-07
-6.21659e-08
4.48602e-08
-1.61074e-08
6.85524e-07
3.16145e-08
-1.6282e-08
7.08725e-07
1.63246e-08
-1.63202e-08
7.24401e-07
1.13768e-15
-1.63246e-08
7.32293e-07
-1.63246e-08
-1.63246e-08
7.32293e-07
-3.16145e-08
-1.63202e-08
7.24401e-07
-4.48602e-08
-1.6282e-08
7.08725e-07
-5.52199e-08
-1.61074e-08
6.85524e-07
-1.56625e-08
6.5513e-07
-6.21659e-08
5.51605e-08
-3.05684e-08
6.44471e-07
-6.19664e-08
4.4823e-08
-3.12347e-08
6.76011e-07
3.15993e-08
-3.1537e-08
7.0002e-07
1.63202e-08
-3.15993e-08
7.16234e-07
2.08251e-16
-3.16145e-08
7.24401e-07
-1.63202e-08
-3.16145e-08
7.24401e-07
-3.15993e-08
-3.15993e-08
7.16234e-07
-4.48229e-08
-3.1537e-08
7.0002e-07
-5.51605e-08
-3.12347e-08
6.76011e-07
-3.05684e-08
6.44471e-07
-6.19664e-08
5.51724e-08
-4.37504e-08
6.23238e-07
-6.19765e-08
4.47566e-08
-4.43552e-08
6.57099e-07
3.1537e-08
-4.47566e-08
6.82741e-07
1.6282e-08
-4.4823e-08
7.0002e-07
2.89693e-15
-4.48602e-08
7.08725e-07
-1.6282e-08
-4.48602e-08
7.08725e-07
-3.1537e-08
-4.4823e-08
7.0002e-07
-4.47566e-08
-4.47566e-08
6.82741e-07
-5.51724e-08
-4.43552e-08
6.57099e-07
-4.37504e-08
6.23238e-07
-6.19765e-08
5.47649e-08
-5.49776e-08
5.91381e-07
-6.10946e-08
4.43552e-08
-5.47649e-08
6.2891e-07
3.12347e-08
-5.51724e-08
6.57099e-07
1.61074e-08
-5.51605e-08
6.76011e-07
5.93829e-15
-5.52199e-08
6.85524e-07
-1.61074e-08
-5.52199e-08
6.85524e-07
-3.12347e-08
-5.51605e-08
6.76011e-07
-4.43552e-08
-5.51724e-08
6.57099e-07
-5.47649e-08
-5.47649e-08
6.2891e-07
-5.49776e-08
5.91381e-07
-6.10946e-08
5.49776e-08
5.48682e-07
-6.22478e-08
-6.22478e-08
4.37504e-08
5.91381e-07
-6.10946e-08
3.05684e-08
6.23238e-07
-6.19765e-08
1.56626e-08
6.44471e-07
-6.19664e-08
1.33983e-15
6.5513e-07
-6.21659e-08
-1.56625e-08
6.5513e-07
-6.21659e-08
-3.05684e-08
6.44471e-07
-6.19664e-08
-4.37504e-08
6.23238e-07
-6.19765e-08
-5.49776e-08
5.91381e-07
-6.10946e-08
5.48682e-07
-6.22478e-08
-6.22478e-08
2.78289e-08
2.7829e-08
5.51547e-07
-2.92612e-08
-2.92612e-08
2.31078e-08
2.87872e-08
5.97229e-07
-2.99139e-08
1.65122e-08
2.95051e-08
6.31297e-07
-3.09686e-08
8.55979e-09
2.97999e-08
6.54029e-07
-3.14051e-08
-5.01593e-16
2.99422e-08
6.65431e-07
-3.1683e-08
-8.55979e-09
2.99422e-08
6.65431e-07
-3.1683e-08
-1.65122e-08
2.97998e-08
6.54029e-07
-3.14051e-08
-2.31078e-08
2.95051e-08
6.31297e-07
-3.09686e-08
-2.78289e-08
2.87872e-08
5.97229e-07
-2.99139e-08
2.78289e-08
5.51547e-07
-2.92612e-08
-2.92612e-08
2.87872e-08
2.31078e-08
5.97229e-07
-2.99139e-08
2.42271e-08
2.42271e-08
6.3803e-07
1.73923e-08
2.48061e-08
6.68633e-07
9.05532e-09
2.50182e-08
6.89129e-07
-3.38667e-16
2.51032e-08
6.99419e-07
-9.05533e-09
2.51032e-08
6.99419e-07
-1.73923e-08
2.50182e-08
6.89129e-07
-2.42271e-08
2.48061e-08
6.68633e-07
-2.87872e-08
2.42271e-08
6.3803e-07
2.31078e-08
5.97229e-07
-2.99139e-08
2.95051e-08
1.65122e-08
6.31297e-07
-3.09686e-08
2.48061e-08
1.73923e-08
6.68633e-07
1.77966e-08
1.77966e-08
6.9676e-07
9.26749e-09
1.7938e-08
7.1563e-07
1.80869e-15
1.79888e-08
7.25107e-07
-9.26749e-09
1.79888e-08
7.25107e-07
-1.77966e-08
1.7938e-08
7.1563e-07
-2.48061e-08
1.77966e-08
6.9676e-07
-2.95051e-08
1.73923e-08
6.68633e-07
1.65122e-08
6.31297e-07
-3.09686e-08
2.97999e-08
8.55979e-09
6.54029e-07
-3.14051e-08
2.50182e-08
9.05532e-09
6.89129e-07
1.7938e-08
9.26749e-09
7.1563e-07
9.34311e-09
9.34311e-09
7.33424e-07
3.31902e-15
9.37014e-09
7.42363e-07
-9.3431e-09
9.37013e-09
7.42363e-07
-1.7938e-08
9.34311e-09
7.33424e-07
-2.50182e-08
9.26749e-09
7.1563e-07
-2.97998e-08
9.05533e-09
6.89129e-07
8.55979e-09
6.54029e-07
-3.14051e-08
2.99422e-08
-1.12052e-15
6.65431e-07
-3.1683e-08
2.51032e-08
7.76988e-16
6.99419e-07
1.79888e-08
3.99292e-15
7.25107e-07
9.37014e-09
5.24192e-15
7.42363e-07
2.97219e-15
3.92291e-15
7.51033e-07
-9.37013e-09
1.46492e-15
7.51033e-07
-1.79888e-08
-1.89206e-16
7.42363e-07
-2.51032e-08
1.60206e-15
7.25107e-07
-2.99422e-08
3.92338e-15
6.99419e-07
2.98835e-15
6.65431e-07
-3.1683e-08
2.99422e-08
-8.55979e-09
6.65431e-07
-3.1683e-08
2.51032e-08
-9.05532e-09
6.99419e-07
1.79888e-08
-9.26749e-09
7.25107e-07
9.37013e-09
-9.3431e-09
7.42363e-07
-1.29898e-16
-9.37013e-09
7.51033e-07
-9.37013e-09
-9.37013e-09
7.51033e-07
-1.79888e-08
-9.34311e-09
7.42363e-07
-2.51032e-08
-9.26749e-09
7.25107e-07
-2.99422e-08
-9.05532e-09
6.99419e-07
-8.55979e-09
6.65431e-07
-3.1683e-08
2.97998e-08
-1.65122e-08
6.54029e-07
-3.14051e-08
2.50182e-08
-1.73923e-08
6.89129e-07
1.7938e-08
-1.77966e-08
7.1563e-07
9.34311e-09
-1.7938e-08
7.33424e-07
-1.25994e-15
-1.79888e-08
7.42363e-07
-9.34311e-09
-1.79888e-08
7.42363e-07
-1.7938e-08
-1.7938e-08
7.33424e-07
-2.50182e-08
-1.77966e-08
7.1563e-07
-2.97999e-08
-1.73923e-08
6.89129e-07
-1.65122e-08
6.54029e-07
-3.14051e-08
2.95051e-08
-2.31078e-08
6.31297e-07
-3.09686e-08
2.48061e-08
-2.42271e-08
6.68633e-07
1.77966e-08
-2.48061e-08
6.9676e-07
9.26749e-09
-2.50182e-08
7.1563e-07
8.09771e-16
-2.51032e-08
7.25107e-07
-9.26749e-09
-2.51032e-08
7.25107e-07
-1.77966e-08
-2.50182e-08
7.1563e-07
-2.48061e-08
-2.48061e-08
6.9676e-07
-2.95051e-08
-2.42271e-08
6.68633e-07
-2.31078e-08
6.31297e-07
-3.09686e-08
2.87872e-08
-2.7829e-08
5.97229e-07
-2.99139e-08
2.42271e-08
-2.87871e-08
6.3803e-07
1.73923e-08
-2.95051e-08
6.68633e-07
9.05533e-09
-2.97998e-08
6.89129e-07
2.85527e-15
-2.99422e-08
6.99419e-07
-9.05532e-09
-2.99422e-08
6.99419e-07
-1.73923e-08
-2.97998e-08
6.89129e-07
-2.42271e-08
-2.95051e-08
6.68633e-07
-2.87872e-08
-2.87872e-08
6.3803e-07
-2.78289e-08
5.97229e-07
-2.99139e-08
2.78289e-08
5.51547e-07
-2.92612e-08
-2.92612e-08
2.31078e-08
5.97229e-07
-2.99139e-08
1.65122e-08
6.31297e-07
-3.09686e-08
8.55979e-09
6.54029e-07
-3.14051e-08
1.6356e-15
6.65431e-07
-3.1683e-08
-8.55979e-09
6.65431e-07
-3.1683e-08
-1.65122e-08
6.54029e-07
-3.14051e-08
-2.31078e-08
6.31297e-07
-3.09686e-08
-2.78289e-08
5.97229e-07
-2.99139e-08
5.51547e-07
-2.92612e-08
-2.92612e-08
9.71395e-09
9.71395e-09
5.51178e-07
-9.52975e-09
-9.52975e-09
8.53728e-09
1.08892e-08
5.98035e-07
-1.05191e-08
6.33227e-09
1.17609e-08
6.33149e-07
-1.1408e-08
3.35565e-09
1.22603e-08
6.56657e-07
-1.19121e-08
1.01088e-15
1.25067e-08
6.68464e-07
-1.21848e-08
-3.35565e-09
1.25066e-08
6.68464e-07
-1.21847e-08
-6.33226e-09
1.22602e-08
6.56657e-07
-1.19121e-08
-8.53727e-09
1.17609e-08
6.33149e-07
-1.1408e-08
-9.71394e-09
1.08892e-08
5.98035e-07
-1.05191e-08
9.71395e-09
5.51178e-07
-9.52975e-09
-9.52975e-09
1.08892e-08
8.53727e-09
5.98035e-07
-1.05191e-08
9.68051e-09
9.68051e-09
6.40447e-07
7.21372e-09
1.04491e-08
6.72411e-07
3.83789e-09
1.08864e-08
6.93879e-07
4.07066e-16
1.10943e-08
7.04669e-07
-3.83789e-09
1.10943e-08
7.04669e-07
-7.21372e-09
1.08864e-08
6.93879e-07
-9.68051e-09
1.04491e-08
6.72411e-07
-1.08892e-08
9.68051e-09
6.40447e-07
8.53727e-09
5.98035e-07
-1.05191e-08
1.17609e-08
6.33226e-09
6.33149e-07
-1.1408e-08
1.04491e-08
7.21372e-09
6.72411e-07
7.77812e-09
7.77812e-09
7.02102e-07
4.13685e-09
8.09702e-09
7.2206e-07
2.57309e-15
8.24525e-09
7.32093e-07
-4.13685e-09
8.24525e-09
7.32093e-07
-7.77811e-09
8.09702e-09
7.2206e-07
-1.04491e-08
7.77811e-09
7.02102e-07
-1.17609e-08
7.21373e-09
6.72411e-07
6.33226e-09
6.33149e-07
-1.1408e-08
1.22603e-08
3.35565e-09
6.56657e-07
-1.19121e-08
1.08864e-08
3.83789e-09
6.93879e-07
8.09703e-09
4.13685e-09
7.2206e-07
4.30516e-09
4.30516e-09
7.41008e-07
3.4892e-15
4.3825e-09
7.50531e-07
-4.30515e-09
4.38249e-09
7.50531e-07
-8.09702e-09
4.30515e-09
7.41008e-07
-1.08864e-08
4.13685e-09
7.2206e-07
-1.22602e-08
3.83789e-09
6.93879e-07
3.35565e-09
6.56657e-07
-1.19121e-08
1.25067e-08
-2.67253e-16
6.68464e-07
-1.21848e-08
1.10943e-08
-4.7708e-16
7.04669e-07
8.24525e-09
2.34502e-15
7.32093e-07
4.3825e-09
3.44742e-15
7.50531e-07
2.93595e-15
3.06727e-15
7.59798e-07
-4.38249e-09
1.42415e-15
7.59798e-07
-8.24525e-09
2.47653e-16
7.50531e-07
-1.10943e-08
1.46006e-15
7.32093e-07
-1.25066e-08
2.73725e-15
7.04669e-07
2.63801e-15
6.68464e-07
-1.21848e-08
1.25066e-08
-3.35565e-09
6.68464e-07
-1.21847e-08
1.10943e-08
-3.83789e-09
7.04669e-07
8.24525e-09
-4.13685e-09
7.32093e-07
4.38249e-09
-4.30515e-09
7.50531e-07
1.11823e-15
-4.38249e-09
7.59798e-07
-4.38249e-09
-4.38249e-09
7.59798e-07
-8.24525e-09
-4.30515e-09
7.50531e-07
-1.10943e-08
-4.13685e-09
7.32093e-07
-1.25066e-08
-3.83789e-09
7.04669e-07
-3.35564e-09
6.68464e-07
-1.21848e-08
1.22602e-08
-6.33226e-09
6.56657e-07
-1.19121e-08
1.08864e-08
-7.21372e-09
6.93879e-07
8.09702e-09
-7.77811e-09
7.2206e-07
4.30515e-09
-8.09702e-09
7.41008e-07
4.87209e-16
-8.24525e-09
7.50531e-07
-4.30515e-09
-8.24525e-09
7.50531e-07
-8.09702e-09
-8.09702e-09
7.41008e-07
-1.08864e-08
-7.77811e-09
7.2206e-07
-1.22602e-08
-7.21372e-09
6.93879e-07
-6.33226e-09
6.56657e-07
-1.19121e-08
1.17609e-08
-8.53727e-09
6.33149e-07
-1.1408e-08
1.04491e-08
-9.68051e-09
6.72411e-07
7.77812e-09
-1.04491e-08
7.02102e-07
4.13685e-09
-1.08864e-08
7.2206e-07
1.59355e-15
-1.10943e-08
7.32093e-07
-4.13685e-09
-1.10943e-08
7.32093e-07
-7.77811e-09
-1.08864e-08
7.2206e-07
-1.04491e-08
-1.04491e-08
7.02102e-07
-1.17609e-08
-9.68051e-09
6.72411e-07
-8.53726e-09
6.33149e-07
-1.1408e-08
1.08892e-08
-9.71395e-09
5.98035e-07
-1.05191e-08
9.68051e-09
-1.08892e-08
6.40447e-07
7.21372e-09
-1.17609e-08
6.72411e-07
3.83789e-09
-1.22602e-08
6.93879e-07
2.25289e-15
-1.25066e-08
7.04669e-07
-3.83789e-09
-1.25066e-08
7.04669e-07
-7.21372e-09
-1.22602e-08
6.93879e-07
-9.68051e-09
-1.17609e-08
6.72411e-07
-1.08892e-08
-1.08892e-08
6.40447e-07
-9.71394e-09
5.98035e-07
-1.05191e-08
9.71394e-09
5.51178e-07
-9.52975e-09
-9.52975e-09
8.53726e-09
5.98035e-07
-1.05191e-08
6.33226e-09
6.33149e-07
-1.1408e-08
3.35565e-09
6.56657e-07
-1.19121e-08
9.32983e-16
6.68464e-07
-1.21848e-08
-3.35564e-09
6.68464e-07
-1.21848e-08
-6.33225e-09
6.56657e-07
-1.19121e-08
-8.53726e-09
6.33149e-07
-1.1408e-08
-9.71394e-09
5.98035e-07
-1.05191e-08
5.51178e-07
-9.52975e-09
-9.52974e-09
3.22785e-09
3.22786e-09
5.50843e-07
-3.06038e-09
-3.06038e-09
2.91217e-09
3.76546e-09
5.98069e-07
-3.48359e-09
2.19799e-09
4.18538e-09
6.33535e-07
-3.85795e-09
1.17685e-09
4.45031e-09
6.5732e-07
-4.09147e-09
-1.91414e-15
4.58519e-09
6.69274e-07
-4.21808e-09
-1.17686e-09
4.58519e-09
6.69274e-07
-4.21807e-09
-2.198e-09
4.45031e-09
6.5732e-07
-4.09147e-09
-2.91218e-09
4.18537e-09
6.33535e-07
-3.85795e-09
-3.22785e-09
3.76545e-09
5.98069e-07
-3.48359e-09
3.22783e-09
5.50843e-07
-3.06037e-09
-3.06037e-09
3.76546e-09
2.91217e-09
5.98069e-07
-3.48359e-09
3.45781e-09
3.45781e-09
6.41062e-07
2.63496e-09
3.86084e-09
6.73559e-07
1.42066e-09
4.11517e-09
6.95428e-07
1.03628e-15
4.24206e-09
7.06433e-07
-1.42066e-09
4.24206e-09
7.06433e-07
-2.63496e-09
4.11517e-09
6.95428e-07
-3.45782e-09
3.86084e-09
6.73559e-07
-3.76546e-09
3.4578e-09
6.41062e-07
2.91216e-09
5.98069e-07
-3.4836e-09
4.18539e-09
2.19799e-09
6.33535e-07
-3.85795e-09
3.86085e-09
2.63496e-09
6.73559e-07
2.94892e-09
2.94892e-09
7.03925e-07
1.59233e-09
3.14687e-09
7.24385e-07
2.85205e-15
3.24437e-09
7.34683e-07
-1.59232e-09
3.24437e-09
7.34683e-07
-2.94891e-09
3.14686e-09
7.24385e-07
-3.86084e-09
2.94892e-09
7.03925e-07
-4.18538e-09
2.63495e-09
6.73559e-07
2.19798e-09
6.33535e-07
-3.85795e-09
4.45031e-09
1.17686e-09
6.5732e-07
-4.09147e-09
4.11517e-09
1.42066e-09
6.95428e-07
3.14686e-09
1.59233e-09
7.24385e-07
1.70055e-09
1.70055e-09
7.439e-07
3.35369e-15
1.75351e-09
7.53722e-07
-1.70054e-09
1.7535e-09
7.53722e-07
-3.14686e-09
1.70055e-09
7.439e-07
-4.11517e-09
1.59232e-09
7.24385e-07
-4.4503e-09
1.42066e-09
6.95428e-07
1.17685e-09
6.5732e-07
-4.09147e-09
4.58519e-09
-1.42665e-15
6.69274e-07
-4.21807e-09
4.24206e-09
3.53596e-15
7.06433e-07
3.24437e-09
4.76061e-15
7.34683e-07
1.7535e-09
4.57314e-15
7.53722e-07
2.50375e-15
3.60365e-15
7.63305e-07
-1.7535e-09
1.7565e-15
7.63305e-07
-3.24436e-09
2.23044e-16
7.53722e-07
-4.24205e-09
-3.28337e-16
7.34683e-07
-4.58519e-09
-9.76588e-16
7.06433e-07
5.93162e-16
6.69274e-07
-4.21807e-09
4.58519e-09
-1.17686e-09
6.69274e-07
-4.21807e-09
4.24206e-09
-1.42066e-09
7.06433e-07
3.24437e-09
-1.59232e-09
7.34683e-07
1.7535e-09
-1.70054e-09
7.53722e-07
6.15001e-16
-1.7535e-09
7.63305e-07
-1.7535e-09
-1.7535e-09
7.63305e-07
-3.24436e-09
-1.70054e-09
7.53722e-07
-4.24205e-09
-1.59232e-09
7.34683e-07
-4.58519e-09
-1.42066e-09
7.06433e-07
-1.17685e-09
6.69274e-07
-4.21808e-09
4.4503e-09
-2.19799e-09
6.5732e-07
-4.09147e-09
4.11517e-09
-2.63495e-09
6.95428e-07
3.14686e-09
-2.94891e-09
7.24385e-07
1.70054e-09
-3.14686e-09
7.439e-07
-1.04789e-15
-3.24436e-09
7.53722e-07
-1.70054e-09
-3.24436e-09
7.53722e-07
-3.14686e-09
-3.14686e-09
7.439e-07
-4.11517e-09
-2.94892e-09
7.24385e-07
-4.4503e-09
-2.63496e-09
6.95428e-07
-2.19798e-09
6.5732e-07
-4.09147e-09
4.18536e-09
-2.91216e-09
6.33535e-07
-3.85794e-09
3.86083e-09
-3.45781e-09
6.73559e-07
2.94891e-09
-3.86084e-09
7.03925e-07
1.59232e-09
-4.11517e-09
7.24385e-07
-1.33696e-15
-4.24205e-09
7.34683e-07
-1.59232e-09
-4.24205e-09
7.34683e-07
-2.94892e-09
-4.11517e-09
7.24385e-07
-3.86084e-09
-3.86084e-09
7.03925e-07
-4.18538e-09
-3.45781e-09
6.73559e-07
-2.91217e-09
6.33535e-07
-3.85795e-09
3.76546e-09
-3.22785e-09
5.98069e-07
-3.48359e-09
3.45781e-09
-3.76545e-09
6.41062e-07
2.63496e-09
-4.18537e-09
6.73559e-07
1.42066e-09
-4.4503e-09
6.95428e-07
-1.10966e-15
-4.58519e-09
7.06433e-07
-1.42066e-09
-4.58519e-09
7.06433e-07
-2.63496e-09
-4.4503e-09
6.95428e-07
-3.45781e-09
-4.18537e-09
6.73559e-07
-3.76546e-09
-3.76546e-09
6.41062e-07
-3.22785e-09
5.98069e-07
-3.48359e-09
3.22785e-09
5.50843e-07
-3.06037e-09
-3.06037e-09
2.91217e-09
5.98069e-07
-3.48359e-09
2.19799e-09
6.33535e-07
-3.85794e-09
1.17686e-09
6.5732e-07
-4.09147e-09
2.23461e-15
6.69274e-07
-4.21808e-09
-1.17685e-09
6.69274e-07
-4.21808e-09
-2.19798e-09
6.5732e-07
-4.09147e-09
-2.91216e-09
6.33535e-07
-3.85795e-09
-3.22784e-09
5.98069e-07
-3.48359e-09
5.50843e-07
-3.06037e-09
-3.06037e-09
1.13108e-09
1.13109e-09
5.50676e-07
-1.04742e-09
-1.04742e-09
1.03562e-09
1.34226e-09
5.9803e-07
-1.20806e-09
7.89197e-10
1.50962e-09
6.33623e-07
-1.35092e-09
4.2495e-10
1.61894e-09
6.57508e-07
-1.44262e-09
-1.48074e-15
1.67496e-09
6.69516e-07
-1.49191e-09
-4.24953e-10
1.67496e-09
6.69516e-07
-1.49191e-09
-7.89198e-10
1.61894e-09
6.57508e-07
-1.44261e-09
-1.03562e-09
1.50962e-09
6.33623e-07
-1.35092e-09
-1.13109e-09
1.34226e-09
5.9803e-07
-1.20806e-09
1.13109e-09
5.50676e-07
-1.04742e-09
-1.04742e-09
1.34226e-09
1.03562e-09
5.9803e-07
-1.20806e-09
1.25496e-09
1.25496e-09
6.41237e-07
9.67608e-10
1.42176e-09
6.73934e-07
5.25363e-10
1.53101e-09
6.95958e-07
-1.74772e-16
1.58644e-09
7.07047e-07
-5.25364e-10
1.58644e-09
7.07047e-07
-9.67612e-10
1.53101e-09
6.95958e-07
-1.25496e-09
1.42176e-09
6.73934e-07
-1.34227e-09
1.25496e-09
6.41237e-07
1.03562e-09
5.9803e-07
-1.20806e-09
1.50962e-09
7.89196e-10
6.33623e-07
-1.35092e-09
1.42176e-09
9.67611e-10
6.73934e-07
1.10132e-09
1.10132e-09
7.04566e-07
5.99652e-10
1.18914e-09
7.25229e-07
2.7833e-15
1.23337e-09
7.35635e-07
-5.99647e-10
1.23337e-09
7.35635e-07
-1.10132e-09
1.18914e-09
7.25229e-07
-1.42176e-09
1.10132e-09
7.04566e-07
-1.50962e-09
9.67611e-10
6.73934e-07
7.89195e-10
6.33623e-07
-1.35092e-09
1.61894e-09
4.24948e-10
6.57508e-07
-1.44261e-09
1.53101e-09
5.25365e-10
6.95958e-07
1.18914e-09
5.99653e-10
7.25229e-07
6.48594e-10
6.48594e-10
7.44981e-07
3.59024e-15
6.73153e-10
7.54931e-07
-6.48587e-10
6.73152e-10
7.54931e-07
-1.18914e-09
6.4859e-10
7.44981e-07
-1.53101e-09
5.9965e-10
7.25229e-07
-1.61894e-09
5.25364e-10
6.95958e-07
4.2495e-10
6.57508e-07
-1.44261e-09
1.67496e-09
-2.63447e-15
6.69516e-07
-1.49191e-09
1.58644e-09
1.03197e-15
7.07047e-07
1.23337e-09
2.61079e-15
7.35635e-07
6.73153e-10
3.59085e-15
7.54931e-07
3.16604e-15
3.28734e-15
7.64651e-07
-6.73147e-10
2.35173e-15
7.64651e-07
-1.23337e-09
1.39302e-15
7.54931e-07
-1.58644e-09
1.444e-15
7.35635e-07
-1.67496e-09
8.44463e-16
7.07047e-07
-5.38028e-16
6.69516e-07
-1.49191e-09
1.67496e-09
-4.24955e-10
6.69516e-07
-1.49191e-09
1.58644e-09
-5.25363e-10
7.07047e-07
1.23337e-09
-5.99649e-10
7.35635e-07
6.73152e-10
-6.48587e-10
7.54931e-07
2.40773e-15
-6.73147e-10
7.64651e-07
-6.73147e-10
-6.73147e-10
7.64651e-07
-1.23337e-09
-6.48587e-10
7.54931e-07
-1.58643e-09
-5.99647e-10
7.35635e-07
-1.67496e-09
-5.25363e-10
7.07047e-07
-4.2495e-10
6.69516e-07
-1.49191e-09
1.61894e-09
-7.89201e-10
6.57508e-07
-1.44261e-09
1.53101e-09
-9.67611e-10
6.95958e-07
1.18914e-09
-1.10132e-09
7.25229e-07
6.4859e-10
-1.18914e-09
7.44981e-07
1.17391e-15
-1.23337e-09
7.54931e-07
-6.48588e-10
-1.23337e-09
7.54931e-07
-1.18914e-09
-1.18914e-09
7.44981e-07
-1.53101e-09
-1.10132e-09
7.25229e-07
-1.61894e-09
-9.67611e-10
6.95958e-07
-7.89195e-10
6.57508e-07
-1.44261e-09
1.50962e-09
-1.03562e-09
6.33623e-07
-1.35092e-09
1.42176e-09
-1.25497e-09
6.73934e-07
1.10132e-09
-1.42176e-09
7.04566e-07
5.99651e-10
-1.53101e-09
7.25229e-07
1.26193e-15
-1.58644e-09
7.35635e-07
-5.99649e-10
-1.58643e-09
7.35635e-07
-1.10132e-09
-1.531e-09
7.25229e-07
-1.42176e-09
-1.42176e-09
7.04566e-07
-1.50962e-09
-1.25496e-09
6.73934e-07
-1.03562e-09
6.33623e-07
-1.35092e-09
1.34227e-09
-1.13109e-09
5.9803e-07
-1.20806e-09
1.25496e-09
-1.34227e-09
6.41237e-07
9.67612e-10
-1.50962e-09
6.73934e-07
5.25366e-10
-1.61894e-09
6.95958e-07
1.67901e-15
-1.67496e-09
7.07047e-07
-5.25361e-10
-1.67496e-09
7.07047e-07
-9.67607e-10
-1.61893e-09
6.95958e-07
-1.25496e-09
-1.50961e-09
6.73934e-07
-1.34226e-09
-1.34227e-09
6.41237e-07
-1.13109e-09
5.9803e-07
-1.20806e-09
1.13108e-09
5.50676e-07
-1.04741e-09
-1.04742e-09
1.03561e-09
5.9803e-07
-1.20806e-09
7.89193e-10
6.33623e-07
-1.35092e-09
4.24949e-10
6.57508e-07
-1.44261e-09
-4.6556e-17
6.69516e-07
-1.49191e-09
-4.24948e-10
6.69516e-07
-1.49191e-09
-7.89189e-10
6.57508e-07
-1.44261e-09
-1.03561e-09
6.33623e-07
-1.35092e-09
-1.13108e-09
5.9803e-07
-1.20806e-09
5.50676e-07
-1.04742e-09
-1.04742e-09
3.93504e-10
3.93511e-10
5.50606e-07
-3.58472e-10
-3.58471e-10
3.65575e-10
4.76317e-10
5.98002e-07
-4.20266e-10
2.81362e-10
5.42796e-10
6.33639e-07
-4.74783e-10
1.52435e-10
5.87156e-10
6.5756e-07
-5.10667e-10
-2.00688e-15
6.09982e-10
6.69588e-07
-5.29831e-10
-1.5244e-10
6.09982e-10
6.69588e-07
-5.2983e-10
-2.8137e-10
5.87155e-10
6.5756e-07
-5.10664e-10
-3.65578e-10
5.42781e-10
6.33639e-07
-4.74777e-10
-3.93497e-10
4.76298e-10
5.98002e-07
-4.2026e-10
3.93498e-10
5.50606e-07
-3.58462e-10
-3.58464e-10
4.76316e-10
3.65584e-10
5.98002e-07
-4.20266e-10
4.52415e-10
4.52413e-10
6.41285e-07
3.52634e-10
5.20035e-10
6.74057e-07
1.92707e-10
5.65335e-10
6.9614e-07
2.86941e-15
5.88509e-10
7.07261e-07
-1.92701e-10
5.88509e-10
7.07261e-07
-3.52624e-10
5.65332e-10
6.9614e-07
-4.52407e-10
5.20026e-10
6.74057e-07
-4.76312e-10
4.52402e-10
6.41285e-07
3.65568e-10
5.98002e-07
-4.20262e-10
5.42807e-10
2.81362e-10
6.33639e-07
-4.74784e-10
5.20041e-10
3.52635e-10
6.74057e-07
4.07587e-10
4.07584e-10
7.04791e-07
2.23462e-10
4.44532e-10
7.25534e-07
4.43435e-15
4.6334e-10
7.35984e-07
-2.23452e-10
4.63339e-10
7.35984e-07
-4.07576e-10
4.44528e-10
7.25534e-07
-5.2003e-10
4.07577e-10
7.04791e-07
-5.42789e-10
3.52623e-10
6.74057e-07
2.81357e-10
6.33639e-07
-4.74781e-10
5.87162e-10
1.52431e-10
6.5756e-07
-5.10668e-10
5.6534e-10
1.92709e-10
6.9614e-07
4.44534e-10
2.23461e-10
7.25534e-07
2.44216e-10
2.44216e-10
7.45382e-07
3.90562e-15
2.54759e-10
7.55384e-07
-2.44208e-10
2.54757e-10
7.55384e-07
-4.44526e-10
2.44212e-10
7.45382e-07
-5.65332e-10
2.23455e-10
7.25534e-07
-5.87154e-10
1.92701e-10
6.9614e-07
1.52432e-10
6.5756e-07
-5.10667e-10
6.09981e-10
-3.41079e-15
6.69588e-07
-5.29832e-10
5.88509e-10
3.96905e-15
7.07261e-07
4.6334e-10
4.84522e-15
7.35984e-07
2.54758e-10
4.67893e-15
7.55384e-07
2.93324e-15
3.74057e-15
7.65161e-07
-2.54752e-10
2.20468e-15
7.65161e-07
-4.63334e-10
4.26345e-16
7.55384e-07
-5.88504e-10
-5.42309e-16
7.35984e-07
-6.09978e-10
-2.00722e-15
7.07261e-07
9.79692e-16
6.69588e-07
-5.29833e-10
6.09981e-10
-1.5244e-10
6.69588e-07
-5.2983e-10
5.88508e-10
-1.927e-10
7.07261e-07
4.63338e-10
-2.23451e-10
7.35984e-07
2.54756e-10
-2.44207e-10
7.55384e-07
1.27104e-15
-2.54752e-10
7.65161e-07
-2.54754e-10
-2.54753e-10
7.65161e-07
-4.63336e-10
-2.44212e-10
7.55384e-07
-5.88505e-10
-2.23457e-10
7.35984e-07
-6.09979e-10
-1.92705e-10
7.07261e-07
-1.52429e-10
6.69588e-07
-5.29834e-10
5.87155e-10
-2.8137e-10
6.5756e-07
-5.10664e-10
5.65334e-10
-3.52625e-10
6.9614e-07
4.44529e-10
-4.07573e-10
7.25534e-07
2.44212e-10
-4.44523e-10
7.45382e-07
-1.12527e-16
-4.63333e-10
7.55384e-07
-2.44212e-10
-4.63335e-10
7.55384e-07
-4.44529e-10
-4.44529e-10
7.45382e-07
-5.65333e-10
-4.07582e-10
7.25534e-07
-5.87154e-10
-3.5263e-10
6.9614e-07
-2.81353e-10
6.5756e-07
-5.10666e-10
5.42786e-10
-3.65579e-10
6.33639e-07
-4.74778e-10
5.2003e-10
-4.52408e-10
6.74057e-07
4.0758e-10
-5.20025e-10
7.04791e-07
2.23456e-10
-5.65329e-10
7.25534e-07
-3.00771e-16
-5.88502e-10
7.35984e-07
-2.23456e-10
-5.88505e-10
7.35984e-07
-4.07579e-10
-5.65334e-10
7.25534e-07
-5.20031e-10
-5.20034e-10
7.04791e-07
-5.42793e-10
-4.52408e-10
6.74057e-07
-3.65568e-10
6.33639e-07
-4.74779e-10
4.76304e-10
-3.93501e-10
5.98002e-07
-4.20261e-10
4.52401e-10
-4.76307e-10
6.41285e-07
3.5262e-10
-5.42784e-10
6.74057e-07
1.92698e-10
-5.87153e-10
6.9614e-07
-2.65938e-15
-6.09978e-10
7.07261e-07
-1.92705e-10
-6.0998e-10
7.07261e-07
-3.52629e-10
-5.87157e-10
6.9614e-07
-4.52409e-10
-5.42798e-10
6.74057e-07
-4.76312e-10
-4.7631e-10
6.41285e-07
-3.93497e-10
5.98002e-07
-4.20261e-10
3.93497e-10
5.50606e-07
-3.58464e-10
-3.58464e-10
3.65565e-10
5.98002e-07
-4.20258e-10
2.81354e-10
6.33639e-07
-4.74777e-10
1.5243e-10
6.5756e-07
-5.10667e-10
7.23553e-16
6.69588e-07
-5.29834e-10
-1.52431e-10
6.69588e-07
-5.29834e-10
-2.81358e-10
6.5756e-07
-5.10668e-10
-3.65575e-10
6.33639e-07
-4.74781e-10
-3.93504e-10
5.98002e-07
-4.20259e-10
5.50606e-07
-3.58466e-10
-3.58464e-10
1.37171e-10
1.37164e-10
5.5058e-07
-1.23999e-10
-1.24001e-10
1.28473e-10
1.68109e-10
5.97989e-07
-1.46696e-10
9.94216e-11
1.93308e-10
6.33642e-07
-1.66657e-10
5.40581e-11
2.10445e-10
6.57575e-07
-1.80083e-10
-1.1345e-15
2.19322e-10
6.6961e-07
-1.87252e-10
-5.406e-11
2.19319e-10
6.6961e-07
-1.8725e-10
-9.94222e-11
2.10442e-10
6.57575e-07
-1.80081e-10
-1.28473e-10
1.93313e-10
6.33642e-07
-1.66658e-10
-1.37171e-10
1.68111e-10
5.97989e-07
-1.46695e-10
1.37171e-10
5.5058e-07
-1.24002e-10
-1.24002e-10
1.68107e-10
1.28466e-10
5.97989e-07
-1.46693e-10
1.61297e-10
1.61297e-10
6.41298e-07
1.26652e-10
1.87456e-10
6.74097e-07
6.95292e-11
2.05338e-10
6.96202e-07
-3.21375e-17
2.14569e-10
7.07335e-07
-6.95292e-11
2.14567e-10
7.07335e-07
-1.26655e-10
2.05335e-10
6.96202e-07
-1.613e-10
1.87456e-10
6.74097e-07
-1.68115e-10
1.61299e-10
6.41298e-07
1.28468e-10
5.97989e-07
-1.46696e-10
1.93303e-10
9.94162e-11
6.33642e-07
-1.66654e-10
1.87451e-10
1.26653e-10
6.74097e-07
1.48202e-10
1.48206e-10
7.0487e-07
8.16834e-11
1.63007e-10
7.25642e-07
1.21669e-15
1.70621e-10
7.3611e-07
-8.16817e-11
1.7062e-10
7.3611e-07
-1.48203e-10
1.63005e-10
7.25642e-07
-1.87454e-10
1.48206e-10
7.0487e-07
-1.9331e-10
1.26654e-10
6.74097e-07
9.94151e-11
6.33642e-07
-1.66657e-10
2.10438e-10
5.4057e-11
6.57575e-07
-1.80082e-10
2.05333e-10
6.95291e-11
6.96202e-07
1.63004e-10
8.16849e-11
7.25642e-07
9.00667e-11
9.00674e-11
7.45528e-07
1.86895e-15
9.43742e-11
7.5555e-07
-9.00637e-11
9.43736e-11
7.5555e-07
-1.63003e-10
9.00671e-11
7.45528e-07