/*--------------------------------*- C++ -*----------------------------------*\
| =========                 |                                                 |
| \\      /  F ield         | OpenFOAM: The Open Source CFD Toolbox           |
|  \\    /   O peration     | Version:  2412                                  |
|   \\  /    A nd           | Website:  www.openfoam.com                      |
|    \\/     M anipulation  |                                                 |
\*---------------------------------------------------------------------------*/
FoamFile
{
    version     2.0;
    format      ascii;
    arch        "LSB;label=32;scalar=64";
    class       volVectorField;
    location    "1.9";
    object      U;
}
// * * * * * * * * * * * * * * * * * * * * * * * * * * * * * * * * * * * * * //

dimensions      [0 1 -1 0 0 0 0];

internalField   nonuniform List<vector> 
15000
(
(0.000921436 0.000921436 0.0106253)
(0.000668915 0.000842228 0.0105646)
(0.000453362 0.000823905 0.0105142)
(0.000266142 0.000802947 0.0104794)
(8.7192e-05 0.000793972 0.0104622)
(-8.71921e-05 0.000793972 0.0104622)
(-0.000266142 0.000802947 0.0104794)
(-0.000453362 0.000823905 0.0105142)
(-0.000668915 0.000842228 0.0105646)
(-0.000921436 0.000921436 0.0106253)
(0.000842228 0.000668915 0.0105646)
(0.000625764 0.000625764 0.0104891)
(0.000430217 0.000600652 0.0104312)
(0.000251888 0.00058325 0.0103935)
(8.273e-05 0.000575219 0.0103752)
(-8.273e-05 0.000575219 0.0103752)
(-0.000251888 0.00058325 0.0103935)
(-0.000430217 0.000600652 0.0104312)
(-0.000625764 0.000625764 0.0104891)
(-0.000842228 0.000668915 0.0105646)
(0.000823905 0.000453362 0.0105142)
(0.000600652 0.000430217 0.0104312)
(0.000410834 0.000410834 0.0103714)
(0.000239346 0.000396834 0.0103336)
(7.85137e-05 0.000389946 0.0103154)
(-7.85137e-05 0.000389946 0.0103154)
(-0.000239346 0.000396834 0.0103336)
(-0.000410834 0.000410834 0.0103714)
(-0.000600652 0.000430217 0.0104312)
(-0.000823905 0.000453362 0.0105142)
(0.000802947 0.000266142 0.0104794)
(0.00058325 0.000251888 0.0103935)
(0.000396834 0.000239346 0.0103336)
(0.000230296 0.000230296 0.0102963)
(7.54456e-05 0.000225787 0.0102785)
(-7.54456e-05 0.000225787 0.0102785)
(-0.000230296 0.000230296 0.0102963)
(-0.000396834 0.000239346 0.0103336)
(-0.00058325 0.000251888 0.0103935)
(-0.000802947 0.000266142 0.0104794)
(0.000793972 8.7192e-05 0.0104622)
(0.000575219 8.273e-05 0.0103752)
(0.000389946 7.85137e-05 0.0103154)
(0.000225787 7.54457e-05 0.0102785)
(7.3907e-05 7.3907e-05 0.0102609)
(-7.3907e-05 7.3907e-05 0.0102609)
(-0.000225787 7.54457e-05 0.0102785)
(-0.000389946 7.85137e-05 0.0103154)
(-0.000575219 8.27301e-05 0.0103752)
(-0.000793972 8.71921e-05 0.0104622)
(0.000793972 -8.71921e-05 0.0104622)
(0.000575219 -8.273e-05 0.0103752)
(0.000389946 -7.85137e-05 0.0103154)
(0.000225787 -7.54456e-05 0.0102785)
(7.3907e-05 -7.3907e-05 0.0102609)
(-7.3907e-05 -7.3907e-05 0.0102609)
(-0.000225787 -7.54456e-05 0.0102785)
(-0.000389946 -7.85136e-05 0.0103154)
(-0.000575219 -8.273e-05 0.0103752)
(-0.000793972 -8.7192e-05 0.0104622)
(0.000802947 -0.000266142 0.0104794)
(0.00058325 -0.000251888 0.0103935)
(0.000396834 -0.000239346 0.0103336)
(0.000230296 -0.000230296 0.0102963)
(7.54456e-05 -0.000225787 0.0102785)
(-7.54456e-05 -0.000225787 0.0102785)
(-0.000230296 -0.000230296 0.0102963)
(-0.000396834 -0.000239346 0.0103336)
(-0.00058325 -0.000251888 0.0103935)
(-0.000802947 -0.000266142 0.0104794)
(0.000823905 -0.000453362 0.0105142)
(0.000600652 -0.000430217 0.0104312)
(0.000410834 -0.000410834 0.0103714)
(0.000239346 -0.000396834 0.0103336)
(7.85137e-05 -0.000389946 0.0103154)
(-7.85137e-05 -0.000389946 0.0103154)
(-0.000239346 -0.000396834 0.0103336)
(-0.000410834 -0.000410834 0.0103714)
(-0.000600652 -0.000430217 0.0104312)
(-0.000823905 -0.000453362 0.0105142)
(0.000842228 -0.000668915 0.0105646)
(0.000625764 -0.000625764 0.0104891)
(0.000430217 -0.000600652 0.0104312)
(0.000251888 -0.00058325 0.0103935)
(8.273e-05 -0.000575219 0.0103752)
(-8.273e-05 -0.000575219 0.0103752)
(-0.000251888 -0.00058325 0.0103935)
(-0.000430217 -0.000600652 0.0104312)
(-0.000625764 -0.000625764 0.0104891)
(-0.000842228 -0.000668915 0.0105646)
(0.000921436 -0.000921436 0.0106253)
(0.000668915 -0.000842228 0.0105646)
(0.000453362 -0.000823905 0.0105142)
(0.000266142 -0.000802947 0.0104794)
(8.71921e-05 -0.000793972 0.0104622)
(-8.7192e-05 -0.000793972 0.0104622)
(-0.000266142 -0.000802947 0.0104794)
(-0.000453362 -0.000823905 0.0105142)
(-0.000668915 -0.000842228 0.0105646)
(-0.000921436 -0.000921436 0.0106253)
(0.000341383 0.000341383 0.0118204)
(0.000274479 0.000361111 0.0116978)
(0.000199465 0.000384391 0.0115986)
(0.000122223 0.000397069 0.0115305)
(4.08036e-05 0.000404421 0.0114968)
(-4.08036e-05 0.000404421 0.0114968)
(-0.000122223 0.000397069 0.0115305)
(-0.000199465 0.000384391 0.0115986)
(-0.000274479 0.000361111 0.0116978)
(-0.000341383 0.000341383 0.0118204)
(0.000361111 0.000274479 0.0116978)
(0.00029554 0.00029554 0.0115463)
(0.00021846 0.000313317 0.0114307)
(0.000134253 0.000324471 0.0113547)
(4.51588e-05 0.000330469 0.0113174)
(-4.51588e-05 0.000330469 0.0113174)
(-0.000134253 0.000324471 0.0113547)
(-0.00021846 0.000313317 0.0114307)
(-0.00029554 0.00029554 0.0115463)
(-0.000361111 0.000274479 0.0116978)
(0.000384391 0.000199465 0.0115986)
(0.000313317 0.00021846 0.0114307)
(0.000232199 0.000232199 0.0113081)
(0.000142635 0.000240658 0.0112292)
(4.80529e-05 0.000244936 0.0111907)
(-4.80528e-05 0.000244936 0.0111907)
(-0.000142635 0.000240658 0.0112292)
(-0.000232199 0.000232199 0.0113081)
(-0.000313317 0.00021846 0.0114307)
(-0.000384391 0.000199465 0.0115986)
(0.000397069 0.000122223 0.0115305)
(0.000324471 0.000134253 0.0113547)
(0.000240658 0.000142635 0.0112292)
(0.000147812 0.000147812 0.0111493)
(4.98187e-05 0.000150375 0.0111105)
(-4.98187e-05 0.000150375 0.0111105)
(-0.000147812 0.000147812 0.0111493)
(-0.000240658 0.000142635 0.0112292)
(-0.000324471 0.000134253 0.0113547)
(-0.000397069 0.000122223 0.0115305)
(0.000404421 4.08036e-05 0.0114968)
(0.000330469 4.51588e-05 0.0113174)
(0.000244936 4.80529e-05 0.0111907)
(0.000150375 4.98187e-05 0.0111105)
(5.06782e-05 5.06782e-05 0.0110717)
(-5.06782e-05 5.06782e-05 0.0110717)
(-0.000150375 4.98187e-05 0.0111105)
(-0.000244936 4.80529e-05 0.0111907)
(-0.000330469 4.51589e-05 0.0113174)
(-0.000404421 4.08036e-05 0.0114968)
(0.000404421 -4.08036e-05 0.0114968)
(0.000330469 -4.51588e-05 0.0113174)
(0.000244936 -4.80528e-05 0.0111907)
(0.000150375 -4.98187e-05 0.0111105)
(5.06782e-05 -5.06782e-05 0.0110717)
(-5.06782e-05 -5.06782e-05 0.0110717)
(-0.000150375 -4.98187e-05 0.0111105)
(-0.000244936 -4.80528e-05 0.0111907)
(-0.000330469 -4.51588e-05 0.0113174)
(-0.000404421 -4.08036e-05 0.0114968)
(0.000397069 -0.000122223 0.0115305)
(0.000324471 -0.000134253 0.0113547)
(0.000240658 -0.000142635 0.0112292)
(0.000147812 -0.000147812 0.0111493)
(4.98187e-05 -0.000150375 0.0111105)
(-4.98187e-05 -0.000150375 0.0111105)
(-0.000147812 -0.000147812 0.0111493)
(-0.000240658 -0.000142635 0.0112292)
(-0.000324471 -0.000134253 0.0113547)
(-0.000397069 -0.000122223 0.0115305)
(0.000384391 -0.000199465 0.0115986)
(0.000313317 -0.00021846 0.0114307)
(0.000232199 -0.000232199 0.0113081)
(0.000142635 -0.000240658 0.0112292)
(4.80529e-05 -0.000244936 0.0111907)
(-4.80528e-05 -0.000244936 0.0111907)
(-0.000142635 -0.000240658 0.0112292)
(-0.000232199 -0.000232199 0.0113081)
(-0.000313317 -0.00021846 0.0114307)
(-0.000384391 -0.000199465 0.0115986)
(0.000361111 -0.000274479 0.0116978)
(0.00029554 -0.00029554 0.0115463)
(0.00021846 -0.000313317 0.0114307)
(0.000134253 -0.000324471 0.0113547)
(4.51589e-05 -0.000330469 0.0113174)
(-4.51588e-05 -0.000330469 0.0113174)
(-0.000134253 -0.000324471 0.0113547)
(-0.00021846 -0.000313317 0.0114307)
(-0.00029554 -0.00029554 0.0115463)
(-0.000361111 -0.000274479 0.0116978)
(0.000341383 -0.000341383 0.0118204)
(0.000274479 -0.000361111 0.0116978)
(0.000199465 -0.000384391 0.0115986)
(0.000122223 -0.000397069 0.0115305)
(4.08036e-05 -0.000404421 0.0114968)
(-4.08036e-05 -0.000404421 0.0114968)
(-0.000122223 -0.000397069 0.0115305)
(-0.000199465 -0.000384391 0.0115986)
(-0.000274479 -0.000361111 0.0116978)
(-0.000341383 -0.000341383 0.0118204)
(0.000172369 0.000172369 0.0117006)
(0.000143184 0.000187286 0.0116799)
(0.000107774 0.000202166 0.0116512)
(6.71322e-05 0.000210857 0.0116285)
(2.26094e-05 0.000215571 0.0116168)
(-2.26094e-05 0.000215571 0.0116168)
(-6.71321e-05 0.000210857 0.0116285)
(-0.000107774 0.000202166 0.0116512)
(-0.000143184 0.000187286 0.0116799)
(-0.000172369 0.000172369 0.0117006)
(0.000187286 0.000143184 0.0116799)
(0.000159711 0.000159711 0.0116317)
(0.000121348 0.000172016 0.0115887)
(7.56443e-05 0.000179651 0.0115587)
(2.5613e-05 0.000183591 0.0115435)
(-2.5613e-05 0.000183591 0.0115435)
(-7.56443e-05 0.000179651 0.0115587)
(-0.000121348 0.000172016 0.0115887)
(-0.000159711 0.000159711 0.0116317)
(-0.000187286 0.000143184 0.0116799)
(0.000202166 0.000107774 0.0116512)
(0.000172016 0.000121348 0.0115887)
(0.000130648 0.000130648 0.0115382)
(8.13163e-05 0.000136317 0.0115038)
(2.75515e-05 0.00013913 0.0114865)
(-2.75515e-05 0.00013913 0.0114865)
(-8.13163e-05 0.000136317 0.0115038)
(-0.000130648 0.000130648 0.0115382)
(-0.000172016 0.000121348 0.0115887)
(-0.000202166 0.000107774 0.0116512)
(0.000210857 6.71321e-05 0.0116285)
(0.000179651 7.56443e-05 0.0115587)
(0.000136317 8.13163e-05 0.0115038)
(8.47657e-05 8.47657e-05 0.0114668)
(2.87268e-05 8.64692e-05 0.0114482)
(-2.87268e-05 8.64692e-05 0.0114482)
(-8.47657e-05 8.47658e-05 0.0114668)
(-0.000136317 8.13163e-05 0.0115038)
(-0.000179651 7.56443e-05 0.0115587)
(-0.000210857 6.71321e-05 0.0116285)
(0.000215571 2.26094e-05 0.0116168)
(0.000183591 2.5613e-05 0.0115435)
(0.00013913 2.75515e-05 0.0114865)
(8.64692e-05 2.87268e-05 0.0114482)
(2.93063e-05 2.93063e-05 0.0114289)
(-2.93063e-05 2.93063e-05 0.0114289)
(-8.64692e-05 2.87268e-05 0.0114482)
(-0.00013913 2.75515e-05 0.0114865)
(-0.000183591 2.5613e-05 0.0115435)
(-0.000215571 2.26094e-05 0.0116168)
(0.000215571 -2.26094e-05 0.0116168)
(0.000183591 -2.5613e-05 0.0115435)
(0.00013913 -2.75515e-05 0.0114865)
(8.64692e-05 -2.87268e-05 0.0114482)
(2.93063e-05 -2.93063e-05 0.0114289)
(-2.93063e-05 -2.93063e-05 0.0114289)
(-8.64692e-05 -2.87268e-05 0.0114482)
(-0.00013913 -2.75515e-05 0.0114865)
(-0.000183591 -2.5613e-05 0.0115435)
(-0.000215571 -2.26094e-05 0.0116168)
(0.000210857 -6.71322e-05 0.0116285)
(0.000179652 -7.56442e-05 0.0115587)
(0.000136317 -8.13162e-05 0.0115038)
(8.47657e-05 -8.47657e-05 0.0114668)
(2.87268e-05 -8.64692e-05 0.0114482)
(-2.87268e-05 -8.64692e-05 0.0114482)
(-8.47657e-05 -8.47657e-05 0.0114668)
(-0.000136317 -8.13162e-05 0.0115038)
(-0.000179651 -7.56443e-05 0.0115587)
(-0.000210857 -6.71322e-05 0.0116285)
(0.000202166 -0.000107774 0.0116512)
(0.000172016 -0.000121348 0.0115887)
(0.000130648 -0.000130648 0.0115382)
(8.13163e-05 -0.000136317 0.0115038)
(2.75515e-05 -0.00013913 0.0114865)
(-2.75515e-05 -0.00013913 0.0114865)
(-8.13162e-05 -0.000136317 0.0115038)
(-0.000130648 -0.000130648 0.0115382)
(-0.000172016 -0.000121348 0.0115887)
(-0.000202166 -0.000107774 0.0116512)
(0.000187286 -0.000143184 0.0116799)
(0.000159711 -0.000159711 0.0116317)
(0.000121348 -0.000172016 0.0115887)
(7.56443e-05 -0.000179651 0.0115587)
(2.5613e-05 -0.000183591 0.0115435)
(-2.5613e-05 -0.000183591 0.0115435)
(-7.56443e-05 -0.000179651 0.0115587)
(-0.000121348 -0.000172016 0.0115887)
(-0.000159712 -0.000159712 0.0116317)
(-0.000187286 -0.000143184 0.0116799)
(0.000172369 -0.000172369 0.0117006)
(0.000143184 -0.000187286 0.0116799)
(0.000107774 -0.000202166 0.0116512)
(6.71322e-05 -0.000210857 0.0116285)
(2.26094e-05 -0.000215571 0.0116168)
(-2.26094e-05 -0.000215571 0.0116168)
(-6.71322e-05 -0.000210857 0.0116285)
(-0.000107774 -0.000202166 0.0116512)
(-0.000143184 -0.000187286 0.0116799)
(-0.000172369 -0.000172369 0.0117006)
(5.85122e-05 5.85122e-05 0.0117313)
(5.13444e-05 6.89627e-05 0.0117369)
(4.06351e-05 7.82249e-05 0.0117275)
(2.60194e-05 8.41287e-05 0.0117178)
(8.88039e-06 8.72565e-05 0.0117125)
(-8.88038e-06 8.72565e-05 0.0117125)
(-2.60194e-05 8.41288e-05 0.0117178)
(-4.06351e-05 7.82249e-05 0.0117275)
(-5.13444e-05 6.89628e-05 0.0117369)
(-5.85122e-05 5.85121e-05 0.0117313)
(6.89627e-05 5.13445e-05 0.0117369)
(6.24172e-05 6.24172e-05 0.0117199)
(4.96472e-05 7.0928e-05 0.0117)
(3.18231e-05 7.6524e-05 0.0116852)
(1.09228e-05 7.94101e-05 0.0116775)
(-1.09227e-05 7.94101e-05 0.0116775)
(-3.1823e-05 7.6524e-05 0.0116852)
(-4.96472e-05 7.0928e-05 0.0117)
(-6.24172e-05 6.24172e-05 0.0117199)
(-6.89627e-05 5.13444e-05 0.0117369)
(7.82249e-05 4.06351e-05 0.0117275)
(7.0928e-05 4.96472e-05 0.0117)
(5.63722e-05 5.63722e-05 0.0116751)
(3.60717e-05 6.075e-05 0.0116575)
(1.23868e-05 6.2956e-05 0.0116485)
(-1.23867e-05 6.29561e-05 0.0116485)
(-3.60717e-05 6.075e-05 0.0116575)
(-5.63722e-05 5.63722e-05 0.0116751)
(-7.0928e-05 4.96472e-05 0.0117)
(-7.82249e-05 4.06351e-05 0.0117275)
(8.41287e-05 2.60194e-05 0.0117178)
(7.6524e-05 3.18231e-05 0.0116852)
(6.075e-05 3.60717e-05 0.0116575)
(3.88312e-05 3.88312e-05 0.0116382)
(1.33345e-05 4.0214e-05 0.0116284)
(-1.33345e-05 4.0214e-05 0.0116284)
(-3.88312e-05 3.88312e-05 0.0116382)
(-6.075e-05 3.60717e-05 0.0116575)
(-7.6524e-05 3.18231e-05 0.0116852)
(-8.41287e-05 2.60194e-05 0.0117178)
(8.72565e-05 8.88038e-06 0.0117125)
(7.94101e-05 1.09227e-05 0.0116775)
(6.2956e-05 1.23868e-05 0.0116485)
(4.0214e-05 1.33345e-05 0.0116284)
(1.38074e-05 1.38074e-05 0.0116182)
(-1.38074e-05 1.38074e-05 0.0116182)
(-4.02139e-05 1.33345e-05 0.0116284)
(-6.2956e-05 1.23868e-05 0.0116485)
(-7.94101e-05 1.09228e-05 0.0116775)
(-8.72565e-05 8.88042e-06 0.0117125)
(8.72565e-05 -8.88038e-06 0.0117125)
(7.94101e-05 -1.09227e-05 0.0116775)
(6.2956e-05 -1.23867e-05 0.0116485)
(4.0214e-05 -1.33345e-05 0.0116284)
(1.38074e-05 -1.38074e-05 0.0116182)
(-1.38074e-05 -1.38074e-05 0.0116182)
(-4.02139e-05 -1.33345e-05 0.0116284)
(-6.2956e-05 -1.23868e-05 0.0116485)
(-7.94101e-05 -1.09227e-05 0.0116775)
(-8.72565e-05 -8.88039e-06 0.0117125)
(8.41288e-05 -2.60194e-05 0.0117178)
(7.6524e-05 -3.1823e-05 0.0116852)
(6.075e-05 -3.60717e-05 0.0116575)
(3.88312e-05 -3.88312e-05 0.0116382)
(1.33345e-05 -4.02139e-05 0.0116284)
(-1.33345e-05 -4.02139e-05 0.0116284)
(-3.88312e-05 -3.88312e-05 0.0116382)
(-6.075e-05 -3.60717e-05 0.0116575)
(-7.6524e-05 -3.18231e-05 0.0116852)
(-8.41287e-05 -2.60195e-05 0.0117178)
(7.82249e-05 -4.06351e-05 0.0117275)
(7.09279e-05 -4.96472e-05 0.0117)
(5.63722e-05 -5.63722e-05 0.0116751)
(3.60717e-05 -6.075e-05 0.0116575)
(1.23868e-05 -6.2956e-05 0.0116485)
(-1.23867e-05 -6.2956e-05 0.0116485)
(-3.60717e-05 -6.07499e-05 0.0116575)
(-5.63722e-05 -5.63722e-05 0.0116751)
(-7.0928e-05 -4.96473e-05 0.0117)
(-7.82249e-05 -4.06351e-05 0.0117275)
(6.89627e-05 -5.13444e-05 0.0117369)
(6.24172e-05 -6.24172e-05 0.0117199)
(4.96472e-05 -7.09279e-05 0.0117)
(3.18231e-05 -7.6524e-05 0.0116852)
(1.09228e-05 -7.94101e-05 0.0116775)
(-1.09227e-05 -7.94101e-05 0.0116775)
(-3.18231e-05 -7.6524e-05 0.0116852)
(-4.96473e-05 -7.0928e-05 0.0117)
(-6.24172e-05 -6.24172e-05 0.0117199)
(-6.89627e-05 -5.13445e-05 0.0117369)
(5.85122e-05 -5.85122e-05 0.0117313)
(5.13445e-05 -6.89627e-05 0.0117369)
(4.06351e-05 -7.82249e-05 0.0117275)
(2.60194e-05 -8.41287e-05 0.0117178)
(8.8804e-06 -8.72565e-05 0.0117125)
(-8.88039e-06 -8.72565e-05 0.0117125)
(-2.60195e-05 -8.41288e-05 0.0117178)
(-4.06351e-05 -7.82249e-05 0.0117275)
(-5.13444e-05 -6.89627e-05 0.0117369)
(-5.85121e-05 -5.85121e-05 0.0117313)
(1.92602e-05 1.92602e-05 0.0117244)
(1.72773e-05 2.35035e-05 0.0117437)
(1.40205e-05 2.73241e-05 0.0117451)
(9.08881e-06 2.99115e-05 0.011743)
(3.1222e-06 3.13007e-05 0.0117414)
(-3.12223e-06 3.13007e-05 0.0117414)
(-9.08881e-06 2.99115e-05 0.011743)
(-1.40205e-05 2.73242e-05 0.0117451)
(-1.72773e-05 2.35036e-05 0.0117437)
(-1.92601e-05 1.92603e-05 0.0117244)
(2.35035e-05 1.72773e-05 0.0117437)
(2.2034e-05 2.2034e-05 0.0117437)
(1.8018e-05 2.58695e-05 0.0117371)
(1.17471e-05 2.85266e-05 0.0117314)
(4.06692e-06 2.99247e-05 0.0117283)
(-4.06691e-06 2.99247e-05 0.0117283)
(-1.1747e-05 2.85266e-05 0.0117314)
(-1.8018e-05 2.58696e-05 0.0117371)
(-2.20341e-05 2.20341e-05 0.0117437)
(-2.35035e-05 1.72774e-05 0.0117437)
(2.73241e-05 1.40205e-05 0.0117451)
(2.58695e-05 1.80181e-05 0.0117371)
(2.12205e-05 2.12205e-05 0.0117271)
(1.38497e-05 2.3427e-05 0.0117197)
(4.803e-06 2.45694e-05 0.0117157)
(-4.80296e-06 2.45694e-05 0.0117157)
(-1.38496e-05 2.3427e-05 0.0117197)
(-2.12204e-05 2.12205e-05 0.0117271)
(-2.58695e-05 1.8018e-05 0.0117371)
(-2.73242e-05 1.40205e-05 0.0117451)
(2.99115e-05 9.0888e-06 0.011743)
(2.85265e-05 1.17471e-05 0.0117314)
(2.3427e-05 1.38497e-05 0.0117197)
(1.52986e-05 1.52986e-05 0.0117111)
(5.30942e-06 1.6046e-05 0.0117066)
(-5.30938e-06 1.6046e-05 0.0117066)
(-1.52986e-05 1.52986e-05 0.0117111)
(-2.3427e-05 1.38497e-05 0.0117197)
(-2.85266e-05 1.1747e-05 0.0117314)
(-2.99115e-05 9.08881e-06 0.011743)
(3.13007e-05 3.1222e-06 0.0117414)
(2.99247e-05 4.06694e-06 0.0117283)
(2.45694e-05 4.80301e-06 0.0117157)
(1.6046e-05 5.30943e-06 0.0117066)
(5.56977e-06 5.56978e-06 0.0117018)
(-5.56974e-06 5.56977e-06 0.0117018)
(-1.60459e-05 5.30941e-06 0.0117066)
(-2.45694e-05 4.80298e-06 0.0117157)
(-2.99247e-05 4.06691e-06 0.0117283)
(-3.13007e-05 3.12223e-06 0.0117414)
(3.13007e-05 -3.12222e-06 0.0117414)
(2.99247e-05 -4.06689e-06 0.0117283)
(2.45694e-05 -4.80295e-06 0.0117157)
(1.6046e-05 -5.30937e-06 0.0117066)
(5.56976e-06 -5.56973e-06 0.0117018)
(-5.56975e-06 -5.56975e-06 0.0117018)
(-1.60459e-05 -5.3094e-06 0.0117066)
(-2.45694e-05 -4.80299e-06 0.0117157)
(-2.99247e-05 -4.06692e-06 0.0117283)
(-3.13007e-05 -3.12222e-06 0.0117414)
(2.99116e-05 -9.08882e-06 0.011743)
(2.85266e-05 -1.1747e-05 0.0117314)
(2.3427e-05 -1.38496e-05 0.0117197)
(1.52986e-05 -1.52985e-05 0.0117111)
(5.3094e-06 -1.60459e-05 0.0117066)
(-5.30941e-06 -1.60459e-05 0.0117066)
(-1.52986e-05 -1.52986e-05 0.0117111)
(-2.3427e-05 -1.38497e-05 0.0117197)
(-2.85265e-05 -1.1747e-05 0.0117314)
(-2.99115e-05 -9.08883e-06 0.011743)
(2.73243e-05 -1.40205e-05 0.0117451)
(2.58696e-05 -1.8018e-05 0.0117371)
(2.12204e-05 -2.12204e-05 0.0117271)
(1.38496e-05 -2.3427e-05 0.0117197)
(4.80297e-06 -2.45694e-05 0.0117157)
(-4.80299e-06 -2.45694e-05 0.0117157)
(-1.38497e-05 -2.3427e-05 0.0117197)
(-2.12204e-05 -2.12204e-05 0.0117271)
(-2.58695e-05 -1.80181e-05 0.0117371)
(-2.73242e-05 -1.40205e-05 0.0117451)
(2.35036e-05 -1.72773e-05 0.0117437)
(2.20341e-05 -2.20342e-05 0.0117437)
(1.8018e-05 -2.58696e-05 0.0117371)
(1.1747e-05 -2.85266e-05 0.0117314)
(4.06691e-06 -2.99247e-05 0.0117283)
(-4.06692e-06 -2.99247e-05 0.0117283)
(-1.1747e-05 -2.85265e-05 0.0117314)
(-1.80181e-05 -2.58695e-05 0.0117371)
(-2.20341e-05 -2.20341e-05 0.0117437)
(-2.35035e-05 -1.72773e-05 0.0117437)
(1.92602e-05 -1.92602e-05 0.0117244)
(1.72773e-05 -2.35036e-05 0.0117437)
(1.40205e-05 -2.73242e-05 0.0117451)
(9.08885e-06 -2.99115e-05 0.011743)
(3.12224e-06 -3.13007e-05 0.0117414)
(-3.12221e-06 -3.13007e-05 0.0117414)
(-9.08884e-06 -2.99115e-05 0.011743)
(-1.40205e-05 -2.73242e-05 0.0117451)
(-1.72773e-05 -2.35035e-05 0.0117437)
(-1.92601e-05 -1.92601e-05 0.0117244)
(6.71742e-06 6.71743e-06 0.0117173)
(6.10148e-06 8.30717e-06 0.0117409)
(5.02673e-06 9.75064e-06 0.0117462)
(3.28099e-06 1.07511e-05 0.0117469)
(1.13179e-06 1.12894e-05 0.0117468)
(-1.1318e-06 1.12894e-05 0.0117468)
(-3.28097e-06 1.07511e-05 0.0117469)
(-5.02671e-06 9.75067e-06 0.0117462)
(-6.10146e-06 8.3072e-06 0.0117409)
(-6.7174e-06 6.71746e-06 0.0117173)
(8.30718e-06 6.10148e-06 0.0117409)
(7.9432e-06 7.94318e-06 0.0117473)
(6.59759e-06 9.45664e-06 0.0117461)
(4.34124e-06 1.0531e-05 0.0117442)
(1.51027e-06 1.11017e-05 0.0117431)
(-1.51027e-06 1.11017e-05 0.0117431)
(-4.34123e-06 1.0531e-05 0.0117442)
(-6.59758e-06 9.45667e-06 0.0117461)
(-7.94315e-06 7.9432e-06 0.0117473)
(-8.30716e-06 6.10149e-06 0.0117409)
(9.75064e-06 5.02673e-06 0.0117462)
(9.45665e-06 6.59759e-06 0.0117461)
(7.8962e-06 7.89619e-06 0.0117427)
(5.21164e-06 8.81723e-06 0.0117399)
(1.81767e-06 9.3011e-06 0.0117384)
(-1.81764e-06 9.30112e-06 0.0117384)
(-5.2116e-06 8.81726e-06 0.0117399)
(-7.89618e-06 7.89621e-06 0.0117427)
(-9.45663e-06 6.59761e-06 0.0117461)
(-9.75065e-06 5.0267e-06 0.0117462)
(1.07511e-05 3.281e-06 0.0117469)
(1.0531e-05 4.34126e-06 0.0117442)
(8.81723e-06 5.21163e-06 0.0117399)
(5.83039e-06 5.83039e-06 0.0117366)
(2.03622e-06 6.15497e-06 0.0117348)
(-2.03618e-06 6.15497e-06 0.0117348)
(-5.83036e-06 5.83039e-06 0.0117366)
(-8.81722e-06 5.21163e-06 0.0117399)
(-1.0531e-05 4.34125e-06 0.0117442)
(-1.07511e-05 3.28098e-06 0.0117469)
(1.12894e-05 1.13179e-06 0.0117468)
(1.11017e-05 1.51028e-06 0.0117431)
(9.3011e-06 1.81767e-06 0.0117384)
(6.15497e-06 2.03622e-06 0.0117348)
(2.15063e-06 2.15062e-06 0.0117329)
(-2.15059e-06 2.15062e-06 0.0117329)
(-6.15494e-06 2.03621e-06 0.0117348)
(-9.30108e-06 1.81767e-06 0.0117384)
(-1.11017e-05 1.51028e-06 0.0117431)
(-1.12894e-05 1.1318e-06 0.0117468)
(1.12894e-05 -1.13182e-06 0.0117468)
(1.11017e-05 -1.51027e-06 0.0117431)
(9.30111e-06 -1.81764e-06 0.0117384)
(6.15498e-06 -2.03618e-06 0.0117348)
(2.15062e-06 -2.15058e-06 0.0117329)
(-2.15059e-06 -2.15059e-06 0.0117329)
(-6.15495e-06 -2.03619e-06 0.0117348)
(-9.30108e-06 -1.81765e-06 0.0117384)
(-1.11017e-05 -1.51027e-06 0.0117431)
(-1.12894e-05 -1.13181e-06 0.0117468)
(1.07511e-05 -3.28098e-06 0.0117469)
(1.0531e-05 -4.34122e-06 0.0117442)
(8.81725e-06 -5.21159e-06 0.0117399)
(5.83039e-06 -5.83035e-06 0.0117366)
(2.03621e-06 -6.15494e-06 0.0117348)
(-2.0362e-06 -6.15495e-06 0.0117348)
(-5.83037e-06 -5.83036e-06 0.0117366)
(-8.81722e-06 -5.2116e-06 0.0117399)
(-1.0531e-05 -4.34125e-06 0.0117442)
(-1.07511e-05 -3.28101e-06 0.0117469)
(9.75068e-06 -5.02667e-06 0.0117462)
(9.45668e-06 -6.59756e-06 0.0117461)
(7.8962e-06 -7.89615e-06 0.0117427)
(5.21162e-06 -8.81721e-06 0.0117399)
(1.81766e-06 -9.30109e-06 0.0117384)
(-1.81764e-06 -9.30108e-06 0.0117384)
(-5.2116e-06 -8.81721e-06 0.0117399)
(-7.8962e-06 -7.89618e-06 0.0117427)
(-9.45668e-06 -6.59765e-06 0.0117461)
(-9.75064e-06 -5.02672e-06 0.0117462)
(8.30722e-06 -6.10146e-06 0.0117409)
(7.9432e-06 -7.94318e-06 0.0117473)
(6.59759e-06 -9.45664e-06 0.0117461)
(4.34122e-06 -1.0531e-05 0.0117442)
(1.51028e-06 -1.11017e-05 0.0117431)
(-1.51026e-06 -1.11017e-05 0.0117431)
(-4.34124e-06 -1.0531e-05 0.0117442)
(-6.59766e-06 -9.45669e-06 0.0117461)
(-7.94321e-06 -7.94321e-06 0.0117473)
(-8.30713e-06 -6.10145e-06 0.0117409)
(6.71748e-06 -6.71742e-06 0.0117173)
(6.1015e-06 -8.30718e-06 0.0117409)
(5.02671e-06 -9.75066e-06 0.0117462)
(3.28098e-06 -1.07511e-05 0.0117469)
(1.13181e-06 -1.12894e-05 0.0117468)
(-1.13181e-06 -1.12894e-05 0.0117468)
(-3.28101e-06 -1.07511e-05 0.0117469)
(-5.02674e-06 -9.75067e-06 0.0117462)
(-6.10145e-06 -8.30714e-06 0.0117409)
(-6.71742e-06 -6.71739e-06 0.0117173)
(2.32174e-06 2.32171e-06 0.011715)
(2.1374e-06 2.92577e-06 0.0117399)
(1.78599e-06 3.47388e-06 0.0117464)
(1.1742e-06 3.8603e-06 0.011748)
(4.06803e-07 4.06821e-06 0.0117484)
(-4.0683e-07 4.06822e-06 0.0117484)
(-1.17422e-06 3.86035e-06 0.011748)
(-1.786e-06 3.47401e-06 0.0117464)
(-2.13742e-06 2.92596e-06 0.0117399)
(-2.32172e-06 2.32181e-06 0.011715)
(2.92576e-06 2.13741e-06 0.0117399)
(2.84503e-06 2.84502e-06 0.0117484)
(2.39604e-06 3.4359e-06 0.011749)
(1.58994e-06 3.86211e-06 0.0117485)
(5.55582e-07 4.08966e-06 0.0117481)
(-5.55546e-07 4.08968e-06 0.0117481)
(-1.58986e-06 3.86217e-06 0.0117485)
(-2.39598e-06 3.43602e-06 0.011749)
(-2.84511e-06 2.84519e-06 0.0117484)
(-2.92589e-06 2.13748e-06 0.0117399)
(3.47382e-06 1.786e-06 0.0117464)
(3.43588e-06 2.39603e-06 0.011749)
(2.91165e-06 2.91164e-06 0.011748)
(1.93965e-06 3.28384e-06 0.011747)
(6.79676e-07 3.48093e-06 0.0117465)
(-6.79622e-07 3.48094e-06 0.0117465)
(-1.93957e-06 3.28384e-06 0.011747)
(-2.91156e-06 2.91161e-06 0.011748)
(-3.43596e-06 2.39603e-06 0.011749)
(-3.47398e-06 1.78601e-06 0.0117464)
(3.86026e-06 1.1742e-06 0.011748)
(3.8621e-06 1.58997e-06 0.0117485)
(3.28384e-06 1.93966e-06 0.011747)
(2.19288e-06 2.19288e-06 0.0117458)
(7.69608e-07 2.32693e-06 0.0117451)
(-7.69558e-07 2.32692e-06 0.0117451)
(-2.19283e-06 2.19287e-06 0.0117458)
(-3.28379e-06 1.9396e-06 0.011747)
(-3.86213e-06 1.58988e-06 0.0117485)
(-3.86034e-06 1.17423e-06 0.011748)
(4.06821e-06 4.06798e-07 0.0117484)
(4.08965e-06 5.55601e-07 0.0117481)
(3.48092e-06 6.79683e-07 0.0117465)
(2.32692e-06 7.69615e-07 0.0117451)
(8.17142e-07 8.17149e-07 0.0117443)
(-8.17105e-07 8.1714e-07 0.0117443)
(-2.32688e-06 7.6959e-07 0.0117451)
(-3.4809e-06 6.79646e-07 0.0117465)
(-4.08965e-06 5.55553e-07 0.0117481)
(-4.06822e-06 4.06832e-07 0.0117484)
(4.06821e-06 -4.06842e-07 0.0117484)
(4.08968e-06 -5.55548e-07 0.0117481)
(3.48094e-06 -6.7962e-07 0.0117465)
(2.32692e-06 -7.69556e-07 0.0117451)
(8.17133e-07 -8.17102e-07 0.0117443)
(-8.17117e-07 -8.17112e-07 0.0117443)
(-2.32689e-06 -7.69583e-07 0.0117451)
(-3.4809e-06 -6.79653e-07 0.0117465)
(-4.08964e-06 -5.55579e-07 0.0117481)
(-4.06822e-06 -4.06821e-07 0.0117484)
(3.86034e-06 -1.17421e-06 0.011748)
(3.86217e-06 -1.58986e-06 0.0117485)
(3.28383e-06 -1.93957e-06 0.011747)
(2.19286e-06 -2.19284e-06 0.0117458)
(7.69586e-07 -2.32688e-06 0.0117451)
(-7.69586e-07 -2.32689e-06 0.0117451)
(-2.19285e-06 -2.19285e-06 0.0117458)
(-3.28381e-06 -1.93961e-06 0.011747)
(-3.86211e-06 -1.58993e-06 0.0117485)
(-3.8603e-06 -1.17422e-06 0.011748)
(3.474e-06 -1.78598e-06 0.0117464)
(3.43599e-06 -2.39599e-06 0.011749)
(2.9116e-06 -2.91158e-06 0.011748)
(1.9396e-06 -3.2838e-06 0.011747)
(6.79654e-07 -3.4809e-06 0.0117465)
(-6.79656e-07 -3.4809e-06 0.0117465)
(-1.93962e-06 -3.28382e-06 0.011747)
(-2.91162e-06 -2.91163e-06 0.011748)
(-3.43593e-06 -2.39606e-06 0.011749)
(-3.47389e-06 -1.786e-06 0.0117464)
(2.92595e-06 -2.13744e-06 0.0117399)
(2.84515e-06 -2.84516e-06 0.0117484)
(2.39602e-06 -3.43599e-06 0.011749)
(1.5899e-06 -3.86212e-06 0.0117485)
(5.55562e-07 -4.08964e-06 0.0117481)
(-5.55593e-07 -4.08964e-06 0.0117481)
(-1.58993e-06 -3.8621e-06 0.0117485)
(-2.39605e-06 -3.43591e-06 0.011749)
(-2.84506e-06 -2.84506e-06 0.0117484)
(-2.9258e-06 -2.13742e-06 0.0117399)
(2.32178e-06 -2.32173e-06 0.011715)
(2.13745e-06 -2.92588e-06 0.0117399)
(1.78605e-06 -3.47396e-06 0.0117464)
(1.17427e-06 -3.86033e-06 0.011748)
(4.06838e-07 -4.06823e-06 0.0117484)
(-4.06827e-07 -4.06821e-06 0.0117484)
(-1.17421e-06 -3.86029e-06 0.011748)
(-1.786e-06 -3.47389e-06 0.0117464)
(-2.13744e-06 -2.92579e-06 0.0117399)
(-2.32173e-06 -2.32172e-06 0.011715)
(8.06162e-07 8.06144e-07 0.0117142)
(7.47872e-07 1.02781e-06 0.0117396)
(6.29937e-07 1.22958e-06 0.0117465)
(4.15819e-07 1.37404e-06 0.0117484)
(1.44427e-07 1.45201e-06 0.0117489)
(-1.44441e-07 1.45201e-06 0.0117489)
(-4.15788e-07 1.37403e-06 0.0117484)
(-6.29899e-07 1.22956e-06 0.0117465)
(-7.47845e-07 1.02782e-06 0.0117396)
(-8.06118e-07 8.06202e-07 0.0117142)
(1.02779e-06 7.47849e-07 0.0117396)
(1.01032e-06 1.01031e-06 0.0117487)
(8.58735e-07 1.23292e-06 0.01175)
(5.7312e-07 1.39583e-06 0.0117501)
(2.00892e-07 1.48334e-06 0.01175)
(-2.00894e-07 1.48335e-06 0.01175)
(-5.73125e-07 1.39584e-06 0.0117501)
(-8.58715e-07 1.23291e-06 0.01175)
(-1.01027e-06 1.01031e-06 0.0117487)
(-1.02778e-06 7.4787e-07 0.0117396)
(1.22956e-06 6.29925e-07 0.0117465)
(1.23293e-06 8.58736e-07 0.01175)
(1.05607e-06 1.05606e-06 0.01175)
(7.08425e-07 1.2008e-06 0.0117496)
(2.49134e-07 1.27807e-06 0.0117494)
(-2.49121e-07 1.27808e-06 0.0117494)
(-7.08416e-07 1.20082e-06 0.0117496)
(-1.05604e-06 1.05608e-06 0.01175)
(-1.23289e-06 8.58745e-07 0.01175)
(-1.22956e-06 6.29919e-07 0.0117465)
(1.37405e-06 4.15827e-07 0.0117484)
(1.39584e-06 5.73129e-07 0.0117501)
(1.2008e-06 7.08424e-07 0.0117496)
(8.08063e-07 8.08065e-07 0.0117492)
(2.84707e-07 8.61271e-07 0.0117489)
(-2.84685e-07 8.61273e-07 0.0117489)
(-8.08054e-07 8.08077e-07 0.0117492)
(-1.20079e-06 7.08435e-07 0.0117496)
(-1.39581e-06 5.73123e-07 0.0117501)
(-1.37403e-06 4.15817e-07 0.0117484)
(1.45202e-06 1.44433e-07 0.0117489)
(1.48334e-06 2.00883e-07 0.01175)
(1.27807e-06 2.49125e-07 0.0117494)
(8.61272e-07 2.84705e-07 0.0117489)
(3.03685e-07 3.03684e-07 0.0117486)
(-3.03657e-07 3.03685e-07 0.0117486)
(-8.61251e-07 2.84712e-07 0.0117489)
(-1.27805e-06 2.49143e-07 0.0117494)
(-1.48332e-06 2.00895e-07 0.01175)
(-1.452e-06 1.44435e-07 0.0117489)
(1.45201e-06 -1.44448e-07 0.0117489)
(1.48335e-06 -2.0089e-07 0.01175)
(1.27808e-06 -2.49117e-07 0.0117494)
(8.61279e-07 -2.84682e-07 0.0117489)
(3.03687e-07 -3.03653e-07 0.0117486)
(-3.03657e-07 -3.03655e-07 0.0117486)
(-8.61251e-07 -2.84687e-07 0.0117489)
(-1.27806e-06 -2.49122e-07 0.0117494)
(-1.48333e-06 -2.00902e-07 0.01175)
(-1.452e-06 -1.44445e-07 0.0117489)
(1.37405e-06 -4.15798e-07 0.0117484)
(1.39585e-06 -5.73099e-07 0.0117501)
(1.20082e-06 -7.08406e-07 0.0117496)
(8.08079e-07 -8.08045e-07 0.0117492)
(2.84712e-07 -8.61242e-07 0.0117489)
(-2.84691e-07 -8.61249e-07 0.0117489)
(-8.08061e-07 -8.08059e-07 0.0117492)
(-1.20081e-06 -7.08422e-07 0.0117496)
(-1.39582e-06 -5.73122e-07 0.0117501)
(-1.37402e-06 -4.15791e-07 0.0117484)
(1.22959e-06 -6.29888e-07 0.0117465)
(1.23292e-06 -8.58725e-07 0.01175)
(1.05606e-06 -1.05605e-06 0.01175)
(7.08442e-07 -1.20078e-06 0.0117496)
(2.49139e-07 -1.27805e-06 0.0117494)
(-2.49132e-07 -1.27806e-06 0.0117494)
(-7.08424e-07 -1.2008e-06 0.0117496)
(-1.05605e-06 -1.05605e-06 0.01175)
(-1.23288e-06 -8.58712e-07 0.01175)
(-1.22956e-06 -6.29904e-07 0.0117465)
(1.02779e-06 -7.4782e-07 0.0117396)
(1.0103e-06 -1.01027e-06 0.0117487)
(8.58752e-07 -1.23286e-06 0.01175)
(5.73145e-07 -1.39579e-06 0.0117501)
(2.0089e-07 -1.48332e-06 0.01175)
(-2.00907e-07 -1.48332e-06 0.01175)
(-5.73116e-07 -1.39581e-06 0.0117501)
(-8.58717e-07 -1.23288e-06 0.01175)
(-1.01029e-06 -1.01029e-06 0.0117487)
(-1.02781e-06 -7.47891e-07 0.0117396)
(8.06148e-07 -8.061e-07 0.0117142)
(7.47872e-07 -1.02773e-06 0.0117396)
(6.29933e-07 -1.22951e-06 0.0117465)
(4.15803e-07 -1.37402e-06 0.0117484)
(1.44421e-07 -1.452e-06 0.0117489)