/*--------------------------------*- C++ -*----------------------------------*\
| =========                 |                                                 |
| \\      /  F ield         | OpenFOAM: The Open Source CFD Toolbox           |
|  \\    /   O peration     | Version:  2412                                  |
|   \\  /    A nd           | Website:  www.openfoam.com                      |
|    \\/     M anipulation  |                                                 |
\*---------------------------------------------------------------------------*/
FoamFile
{
    version     2.0;
    format      ascii;
    arch        "LSB;label=32;scalar=64";
    class       surfaceScalarField;
    location    "5.4";
    object      phi;
}
// * * * * * * * * * * * * * * * * * * * * * * * * * * * * * * * * * * * * * //

dimensions      [0 3 -1 0 0 0 0];

oriented        oriented;

internalField   nonuniform List<scalar> 
43700
(
1.86336e-07
1.86336e-07
5.49757e-07
-2.26205e-07
-2.26205e-07
1.38044e-07
1.65666e-07
5.94158e-07
-2.02149e-07
9.14863e-08
1.52236e-07
6.25723e-07
-1.9197e-07
4.54076e-08
1.43224e-07
6.45963e-07
-1.83396e-07
5.60737e-17
1.38868e-07
6.55893e-07
-1.79425e-07
-4.54076e-08
1.38868e-07
6.55893e-07
-1.79425e-07
-9.14863e-08
1.43224e-07
6.45963e-07
-1.83396e-07
-1.38044e-07
1.52236e-07
6.25723e-07
-1.9197e-07
-1.86336e-07
1.65666e-07
5.94158e-07
-2.02149e-07
1.86336e-07
5.49757e-07
-2.26205e-07
-2.26205e-07
1.65666e-07
1.38044e-07
5.94158e-07
-2.02149e-07
1.23236e-07
1.23236e-07
6.30704e-07
8.11405e-08
1.11869e-07
6.56152e-07
4.01496e-08
1.04234e-07
6.72477e-07
3.55337e-16
1.00486e-07
6.80504e-07
-4.01496e-08
1.00486e-07
6.80504e-07
-8.11405e-08
1.04234e-07
6.72477e-07
-1.23236e-07
1.11869e-07
6.56152e-07
-1.65666e-07
1.23236e-07
6.30704e-07
1.38044e-07
5.94158e-07
-2.02149e-07
1.52236e-07
9.14863e-08
6.25723e-07
-1.9197e-07
1.11869e-07
8.11405e-08
6.56152e-07
7.31059e-08
7.31059e-08
6.774e-07
3.60421e-08
6.77075e-08
6.91153e-07
9.86021e-17
6.50458e-08
6.9796e-07
-3.60421e-08
6.50458e-08
6.9796e-07
-7.31059e-08
6.77075e-08
6.91153e-07
-1.11869e-07
7.31059e-08
6.774e-07
-1.52236e-07
8.11405e-08
6.56152e-07
9.14863e-08
6.25723e-07
-1.9197e-07
1.43224e-07
4.54076e-08
6.45963e-07
-1.83396e-07
1.04234e-07
4.01496e-08
6.72477e-07
6.77075e-08
3.60421e-08
6.91153e-07
3.32736e-08
3.32736e-08
7.03371e-07
-1.26216e-16
3.19055e-08
7.09456e-07
-3.32736e-08
3.19055e-08
7.09456e-07
-6.77075e-08
3.32736e-08
7.03371e-07
-1.04234e-07
3.60421e-08
6.91153e-07
-1.43224e-07
4.01496e-08
6.72477e-07
4.54076e-08
6.45963e-07
-1.83396e-07
1.38868e-07
-4.89023e-17
6.55893e-07
-1.79425e-07
1.00486e-07
-4.10141e-17
6.80504e-07
6.50458e-08
-8.92973e-17
6.9796e-07
3.19055e-08
-5.57208e-17
7.09456e-07
7.87248e-17
2.83912e-17
7.15203e-07
-3.19055e-08
-1.43097e-16
7.15203e-07
-6.50458e-08
-1.62488e-16
7.09456e-07
-1.00486e-07
-1.04787e-16
6.9796e-07
-1.38868e-07
-1.64235e-16
6.80504e-07
5.33451e-17
6.55893e-07
-1.79425e-07
1.38868e-07
-4.54076e-08
6.55893e-07
-1.79425e-07
1.00486e-07
-4.01496e-08
6.80504e-07
6.50458e-08
-3.60421e-08
6.9796e-07
3.19055e-08
-3.32736e-08
7.09456e-07
-1.89331e-16
-3.19055e-08
7.15203e-07
-3.19055e-08
-3.19055e-08
7.15203e-07
-6.50458e-08
-3.32736e-08
7.09456e-07
-1.00486e-07
-3.60421e-08
6.9796e-07
-1.38868e-07
-4.01496e-08
6.80504e-07
-4.54076e-08
6.55893e-07
-1.79425e-07
1.43224e-07
-9.14863e-08
6.45963e-07
-1.83396e-07
1.04234e-07
-8.11405e-08
6.72477e-07
6.77075e-08
-7.31059e-08
6.91153e-07
3.32736e-08
-6.77075e-08
7.03371e-07
-9.13546e-17
-6.50458e-08
7.09456e-07
-3.32736e-08
-6.50458e-08
7.09456e-07
-6.77075e-08
-6.77075e-08
7.03371e-07
-1.04234e-07
-7.31059e-08
6.91153e-07
-1.43224e-07
-8.11405e-08
6.72477e-07
-9.14863e-08
6.45963e-07
-1.83396e-07
1.52236e-07
-1.38044e-07
6.25723e-07
-1.9197e-07
1.11869e-07
-1.23236e-07
6.56152e-07
7.31059e-08
-1.11869e-07
6.774e-07
3.60421e-08
-1.04234e-07
6.91153e-07
-1.50826e-16
-1.00486e-07
6.9796e-07
-3.60421e-08
-1.00486e-07
6.9796e-07
-7.31059e-08
-1.04234e-07
6.91153e-07
-1.11869e-07
-1.11869e-07
6.774e-07
-1.52236e-07
-1.23236e-07
6.56152e-07
-1.38044e-07
6.25723e-07
-1.9197e-07
1.65666e-07
-1.86336e-07
5.94158e-07
-2.02149e-07
1.23236e-07
-1.65666e-07
6.30704e-07
8.11405e-08
-1.52236e-07
6.56152e-07
4.01496e-08
-1.43224e-07
6.72477e-07
-7.81163e-18
-1.38868e-07
6.80504e-07
-4.01496e-08
-1.38868e-07
6.80504e-07
-8.11405e-08
-1.43224e-07
6.72477e-07
-1.23236e-07
-1.52236e-07
6.56152e-07
-1.65666e-07
-1.65666e-07
6.30704e-07
-1.86336e-07
5.94158e-07
-2.02149e-07
1.86336e-07
5.49757e-07
-2.26205e-07
-2.26205e-07
1.38044e-07
5.94158e-07
-2.02149e-07
9.14863e-08
6.25723e-07
-1.9197e-07
4.54076e-08
6.45963e-07
-1.83396e-07
3.55472e-16
6.55893e-07
-1.79425e-07
-4.54076e-08
6.55893e-07
-1.79425e-07
-9.14863e-08
6.45963e-07
-1.83396e-07
-1.38044e-07
6.25723e-07
-1.9197e-07
-1.86336e-07
5.94158e-07
-2.02149e-07
5.49757e-07
-2.26205e-07
-2.26205e-07
1.14713e-07
1.14713e-07
5.84601e-07
-1.32135e-07
-1.32135e-07
8.99488e-08
1.1221e-07
6.38416e-07
-1.31703e-07
6.14307e-08
1.09253e-07
6.75444e-07
-1.30456e-07
3.10327e-08
1.06614e-07
6.98445e-07
-1.28698e-07
-6.7032e-17
1.053e-07
7.09502e-07
-1.27876e-07
-3.10327e-08
1.053e-07
7.09502e-07
-1.27876e-07
-6.14307e-08
1.06614e-07
6.98445e-07
-1.28698e-07
-8.99488e-08
1.09253e-07
6.75444e-07
-1.30456e-07
-1.14713e-07
1.1221e-07
6.38416e-07
-1.31703e-07
1.14713e-07
5.84601e-07
-1.32135e-07
-1.32135e-07
1.1221e-07
8.99488e-08
6.38416e-07
-1.31703e-07
8.66727e-08
8.66727e-08
6.81779e-07
5.86172e-08
8.34136e-08
7.10047e-07
2.9469e-08
8.08857e-08
7.27353e-07
4.8851e-16
7.96158e-08
7.35657e-07
-2.9469e-08
7.96158e-08
7.35657e-07
-5.86172e-08
8.08857e-08
7.27353e-07
-8.66727e-08
8.34136e-08
7.10047e-07
-1.1221e-07
8.66727e-08
6.81779e-07
8.99488e-08
6.38416e-07
-1.31703e-07
1.09253e-07
6.14307e-08
6.75444e-07
-1.30456e-07
8.34136e-08
5.86172e-08
7.10047e-07
5.60266e-08
5.60266e-08
7.32174e-07
2.80898e-08
5.41469e-08
7.45829e-07
2.75901e-16
5.32077e-08
7.52458e-07
-2.80898e-08
5.32077e-08
7.52458e-07
-5.60266e-08
5.41469e-08
7.45829e-07
-8.34136e-08
5.60266e-08
7.32174e-07
-1.09253e-07
5.86172e-08
7.10047e-07
6.14307e-08
6.75444e-07
-1.30456e-07
1.06614e-07
3.10327e-08
6.98445e-07
-1.28698e-07
8.08857e-08
2.9469e-08
7.27353e-07
5.41469e-08
2.80898e-08
7.45829e-07
2.71149e-08
2.71149e-08
7.57435e-07
3.26236e-16
2.66289e-08
7.6315e-07
-2.71149e-08
2.66289e-08
7.6315e-07
-5.41469e-08
2.71149e-08
7.57435e-07
-8.08857e-08
2.80898e-08
7.45829e-07
-1.06614e-07
2.9469e-08
7.27353e-07
3.10327e-08
6.98445e-07
-1.28698e-07
1.053e-07
-3.62157e-16
7.09502e-07
-1.27876e-07
7.96158e-08
5.49733e-16
7.35657e-07
5.32077e-08
3.52895e-16
7.52458e-07
2.66289e-08
1.08222e-16
7.6315e-07
5.83761e-16
4.17909e-16
7.68461e-07
-2.66289e-08
5.54358e-16
7.68461e-07
-5.32077e-08
4.25946e-16
7.6315e-07
-7.96158e-08
2.11685e-16
7.52458e-07
-1.053e-07
-1.53006e-16
7.35657e-07
-1.05525e-16
7.09502e-07
-1.27876e-07
1.053e-07
-3.10327e-08
7.09502e-07
-1.27876e-07
7.96158e-08
-2.9469e-08
7.35657e-07
5.32077e-08
-2.80898e-08
7.52458e-07
2.66289e-08
-2.71149e-08
7.6315e-07
5.63845e-16
-2.66289e-08
7.68461e-07
-2.66289e-08
-2.66289e-08
7.68461e-07
-5.32077e-08
-2.71149e-08
7.6315e-07
-7.96158e-08
-2.80898e-08
7.52458e-07
-1.053e-07
-2.9469e-08
7.35657e-07
-3.10327e-08
7.09502e-07
-1.27876e-07
1.06614e-07
-6.14307e-08
6.98445e-07
-1.28698e-07
8.08857e-08
-5.86172e-08
7.27353e-07
5.41469e-08
-5.60266e-08
7.45829e-07
2.71149e-08
-5.41469e-08
7.57435e-07
7.28117e-16
-5.32077e-08
7.6315e-07
-2.71149e-08
-5.32077e-08
7.6315e-07
-5.41469e-08
-5.41469e-08
7.57435e-07
-8.08857e-08
-5.60266e-08
7.45829e-07
-1.06614e-07
-5.86172e-08
7.27353e-07
-6.14307e-08
6.98445e-07
-1.28698e-07
1.09253e-07
-8.99488e-08
6.75444e-07
-1.30456e-07
8.34136e-08
-8.66727e-08
7.10047e-07
5.60266e-08
-8.34136e-08
7.32174e-07
2.80898e-08
-8.08857e-08
7.45829e-07
4.2481e-16
-7.96158e-08
7.52458e-07
-2.80898e-08
-7.96158e-08
7.52458e-07
-5.60266e-08
-8.08857e-08
7.45829e-07
-8.34136e-08
-8.34136e-08
7.32174e-07
-1.09253e-07
-8.66727e-08
7.10047e-07
-8.99488e-08
6.75444e-07
-1.30456e-07
1.1221e-07
-1.14713e-07
6.38416e-07
-1.31703e-07
8.66727e-08
-1.1221e-07
6.81779e-07
5.86172e-08
-1.09253e-07
7.10047e-07
2.9469e-08
-1.06614e-07
7.27353e-07
-1.40831e-16
-1.053e-07
7.35657e-07
-2.9469e-08
-1.053e-07
7.35657e-07
-5.86172e-08
-1.06614e-07
7.27353e-07
-8.66727e-08
-1.09253e-07
7.10047e-07
-1.1221e-07
-1.1221e-07
6.81779e-07
-1.14713e-07
6.38416e-07
-1.31703e-07
1.14713e-07
5.84601e-07
-1.32135e-07
-1.32135e-07
8.99488e-08
6.38416e-07
-1.31703e-07
6.14307e-08
6.75444e-07
-1.30456e-07
3.10327e-08
6.98445e-07
-1.28698e-07
-1.21972e-16
7.09502e-07
-1.27876e-07
-3.10327e-08
7.09502e-07
-1.27876e-07
-6.14307e-08
6.98445e-07
-1.28698e-07
-8.99488e-08
6.75444e-07
-1.30456e-07
-1.14713e-07
6.38416e-07
-1.31703e-07
5.84601e-07
-1.32135e-07
-1.32135e-07
7.61996e-08
7.61996e-08
5.93606e-07
-8.07019e-08
-8.07019e-08
6.37477e-08
8.01769e-08
6.56494e-07
-8.58031e-08
4.54432e-08
8.19722e-08
7.00057e-07
-8.82808e-08
2.35603e-08
8.2524e-08
7.27208e-07
-8.94048e-08
-7.06972e-16
8.27096e-08
7.40263e-07
-8.99101e-08
-2.35603e-08
8.27096e-08
7.40263e-07
-8.99101e-08
-4.54432e-08
8.2524e-08
7.27208e-07
-8.94048e-08
-6.37477e-08
8.19722e-08
7.00057e-07
-8.82808e-08
-7.61996e-08
8.01769e-08
6.56494e-07
-8.58031e-08
7.61996e-08
5.93606e-07
-8.07019e-08
-8.07019e-08
8.01769e-08
6.37477e-08
6.56494e-07
-8.58031e-08
6.64144e-08
6.64144e-08
7.09304e-07
4.7137e-08
6.74997e-08
7.43797e-07
2.43864e-08
6.77231e-08
7.64905e-07
1.78775e-15
6.77383e-08
7.75015e-07
-2.43864e-08
6.77383e-08
7.75015e-07
-4.7137e-08
6.77231e-08
7.64905e-07
-6.64144e-08
6.74997e-08
7.43797e-07
-8.01769e-08
6.64144e-08
7.09304e-07
6.37477e-08
6.56494e-07
-8.58031e-08
8.19722e-08
4.54432e-08
7.00057e-07
-8.82808e-08
6.74997e-08
4.7137e-08
7.43797e-07
4.77428e-08
4.77428e-08
7.71688e-07
2.46672e-08
4.78113e-08
7.88816e-07
1.37639e-15
4.77691e-08
7.97095e-07
-2.46672e-08
4.77691e-08
7.97095e-07
-4.77428e-08
4.78113e-08
7.88816e-07
-6.74997e-08
4.77428e-08
7.71688e-07
-8.19722e-08
4.7137e-08
7.43797e-07
4.54432e-08
7.00057e-07
-8.82808e-08
8.2524e-08
2.35603e-08
7.27208e-07
-8.94048e-08
6.77231e-08
2.43864e-08
7.64905e-07
4.78113e-08
2.46672e-08
7.88816e-07
2.46852e-08
2.46852e-08
8.03687e-07
1.03056e-15
2.46519e-08
8.10952e-07
-2.46852e-08
2.46519e-08
8.10952e-07
-4.78113e-08
2.46852e-08
8.03687e-07
-6.77231e-08
2.46672e-08
7.88816e-07
-8.2524e-08
2.43864e-08
7.64905e-07
2.35603e-08
7.27208e-07
-8.94048e-08
8.27096e-08
-3.14381e-16
7.40263e-07
-8.99101e-08
6.77383e-08
2.23057e-15
7.75015e-07
4.77691e-08
1.73988e-15
7.97095e-07
2.46519e-08
1.21972e-15
8.10952e-07
9.07873e-16
1.16897e-15
8.17765e-07
-2.46519e-08
1.18018e-15
8.17765e-07
-4.77691e-08
6.15822e-16
8.10952e-07
-6.77383e-08
-1.43689e-16
7.97095e-07
-8.27096e-08
-1.55077e-15
7.75015e-07
-1.31193e-15
7.40263e-07
-8.99101e-08
8.27096e-08
-2.35603e-08
7.40263e-07
-8.99101e-08
6.77383e-08
-2.43864e-08
7.75015e-07
4.77691e-08
-2.46672e-08
7.97095e-07
2.46519e-08
-2.46852e-08
8.10952e-07
7.59845e-16
-2.46519e-08
8.17765e-07
-2.46519e-08
-2.46519e-08
8.17765e-07
-4.77691e-08
-2.46852e-08
8.10952e-07
-6.77383e-08
-2.46672e-08
7.97095e-07
-8.27096e-08
-2.43864e-08
7.75015e-07
-2.35603e-08
7.40263e-07
-8.99101e-08
8.2524e-08
-4.54432e-08
7.27208e-07
-8.94048e-08
6.77231e-08
-4.7137e-08
7.64905e-07
4.78113e-08
-4.77428e-08
7.88816e-07
2.46852e-08
-4.78113e-08
8.03687e-07
6.35444e-16
-4.77691e-08
8.10952e-07
-2.46852e-08
-4.77691e-08
8.10952e-07
-4.78113e-08
-4.78113e-08
8.03687e-07
-6.77231e-08
-4.77428e-08
7.88816e-07
-8.2524e-08
-4.7137e-08
7.64905e-07
-4.54432e-08
7.27208e-07
-8.94048e-08
8.19722e-08
-6.37477e-08
7.00057e-07
-8.82808e-08
6.74997e-08
-6.64144e-08
7.43797e-07
4.77428e-08
-6.74997e-08
7.71688e-07
2.46672e-08
-6.77231e-08
7.88816e-07
6.39229e-17
-6.77383e-08
7.97095e-07
-2.46672e-08
-6.77383e-08
7.97095e-07
-4.77428e-08
-6.77231e-08
7.88816e-07
-6.74997e-08
-6.74997e-08
7.71688e-07
-8.19722e-08
-6.64144e-08
7.43797e-07
-6.37477e-08
7.00057e-07
-8.82808e-08
8.01769e-08
-7.61996e-08
6.56494e-07
-8.58031e-08
6.64144e-08
-8.01769e-08
7.09304e-07
4.7137e-08
-8.19722e-08
7.43797e-07
2.43864e-08
-8.2524e-08
7.64905e-07
-1.19123e-15
-8.27096e-08
7.75015e-07
-2.43864e-08
-8.27096e-08
7.75015e-07
-4.7137e-08
-8.2524e-08
7.64905e-07
-6.64144e-08
-8.19722e-08
7.43797e-07
-8.01769e-08
-8.01769e-08
7.09304e-07
-7.61996e-08
6.56494e-07
-8.58031e-08
7.61996e-08
5.93606e-07
-8.07019e-08
-8.07019e-08
6.37477e-08
6.56494e-07
-8.58031e-08
4.54432e-08
7.00057e-07
-8.82808e-08
2.35603e-08
7.27208e-07
-8.94048e-08
-8.97028e-16
7.40263e-07
-8.99101e-08
-2.35603e-08
7.40263e-07
-8.99101e-08
-4.54432e-08
7.27208e-07
-8.94048e-08
-6.37477e-08
7.00057e-07
-8.82808e-08
-7.61996e-08
6.56494e-07
-8.58031e-08
5.93606e-07
-8.07019e-08
-8.07019e-08
3.04559e-08
3.04559e-08
5.9269e-07
-2.99982e-08
-2.99981e-08
2.72731e-08
3.52787e-08
6.59184e-07
-3.47858e-08
2.03273e-08
3.84356e-08
7.06093e-07
-3.75259e-08
1.08326e-08
4.0289e-08
7.35733e-07
-3.93183e-08
-1.421e-16
4.11662e-08
7.50093e-07
-4.01644e-08
-1.08326e-08
4.11662e-08
7.50093e-07
-4.01644e-08
-2.03273e-08
4.0289e-08
7.35732e-07
-3.93183e-08
-2.72731e-08
3.84356e-08
7.06093e-07
-3.75259e-08
-3.04559e-08
3.52787e-08
6.59184e-07
-3.47858e-08
3.04559e-08
5.9269e-07
-2.99981e-08
-2.99981e-08
3.52787e-08
2.72731e-08
6.59184e-07
-3.47858e-08
3.13019e-08
3.13019e-08
7.17257e-07
2.32974e-08
3.40482e-08
7.56189e-07
1.23939e-08
3.56444e-08
7.80453e-07
1.23514e-15
3.63835e-08
7.92192e-07
-1.23939e-08
3.63835e-08
7.92192e-07
-2.32974e-08
3.56444e-08
7.80453e-07
-3.13019e-08
3.40482e-08
7.56189e-07
-3.52787e-08
3.13019e-08
7.17257e-07
2.72731e-08
6.59184e-07
-3.47858e-08
3.84356e-08
2.03273e-08
7.06093e-07
-3.75259e-08
3.40482e-08
2.32974e-08
7.56189e-07
2.52902e-08
2.52902e-08
7.89204e-07
1.34377e-08
2.6437e-08
8.09876e-07
1.13881e-15
2.69582e-08
8.19958e-07
-1.34377e-08
2.69582e-08
8.19958e-07
-2.52902e-08
2.6437e-08
8.09876e-07
-3.40482e-08
2.52902e-08
7.89204e-07
-3.84356e-08
2.32974e-08
7.56189e-07
2.03273e-08
7.06093e-07
-3.75259e-08
4.0289e-08
1.08326e-08
7.35733e-07
-3.93183e-08
3.56444e-08
1.23939e-08
7.80453e-07
2.6437e-08
1.34377e-08
8.09876e-07
1.4035e-08
1.4035e-08
8.28491e-07
9.43313e-16
1.43033e-08
8.37642e-07
-1.4035e-08
1.43033e-08
8.37642e-07
-2.6437e-08
1.4035e-08
8.28491e-07
-3.56444e-08
1.34377e-08
8.09876e-07
-4.0289e-08
1.23939e-08
7.80453e-07
1.08326e-08
7.35733e-07
-3.93183e-08
4.11662e-08
7.80279e-16
7.50093e-07
-4.01644e-08
3.63835e-08
1.39787e-15
7.92192e-07
2.69582e-08
9.30666e-16
8.19958e-07
1.43033e-08
8.67342e-16
8.37642e-07
1.01452e-15
9.4577e-16
8.46372e-07
-1.43033e-08
1.19745e-15
8.46372e-07
-2.69582e-08
1.01945e-15
8.37642e-07
-3.63835e-08
5.21098e-16
8.19958e-07
-4.11662e-08
-1.5273e-15
7.92192e-07
-1.63897e-15
7.50093e-07
-4.01644e-08
4.11662e-08
-1.08326e-08
7.50093e-07
-4.01644e-08
3.63835e-08
-1.23939e-08
7.92192e-07
2.69582e-08
-1.34377e-08
8.19958e-07
1.43033e-08
-1.4035e-08
8.37642e-07
1.27745e-15
-1.43033e-08
8.46372e-07
-1.43033e-08
-1.43033e-08
8.46372e-07
-2.69582e-08
-1.4035e-08
8.37642e-07
-3.63835e-08
-1.34377e-08
8.19958e-07
-4.11662e-08
-1.23939e-08
7.92192e-07
-1.08326e-08
7.50093e-07
-4.01644e-08
4.0289e-08
-2.03273e-08
7.35733e-07
-3.93183e-08
3.56444e-08
-2.32974e-08
7.80453e-07
2.6437e-08
-2.52902e-08
8.09876e-07
1.4035e-08
-2.6437e-08
8.28491e-07
1.23875e-15
-2.69582e-08
8.37642e-07
-1.4035e-08
-2.69582e-08
8.37642e-07
-2.6437e-08
-2.6437e-08
8.28491e-07
-3.56444e-08
-2.52902e-08
8.09876e-07
-4.0289e-08
-2.32974e-08
7.80453e-07
-2.03273e-08
7.35733e-07
-3.93183e-08
3.84356e-08
-2.72731e-08
7.06093e-07
-3.75259e-08
3.40482e-08
-3.13019e-08
7.56189e-07
2.52902e-08
-3.40482e-08
7.89204e-07
1.34377e-08
-3.56444e-08
8.09876e-07
8.62333e-16
-3.63835e-08
8.19958e-07
-1.34377e-08
-3.63835e-08
8.19958e-07
-2.52902e-08
-3.56444e-08
8.09876e-07
-3.40482e-08
-3.40482e-08
7.89204e-07
-3.84356e-08
-3.13019e-08
7.56189e-07
-2.72731e-08
7.06093e-07
-3.75259e-08
3.52787e-08
-3.04559e-08
6.59184e-07
-3.47858e-08
3.13019e-08
-3.52787e-08
7.17257e-07
2.32974e-08
-3.84356e-08
7.56189e-07
1.23939e-08
-4.0289e-08
7.80453e-07
-8.46708e-16
-4.11662e-08
7.92192e-07
-1.23939e-08
-4.11662e-08
7.92192e-07
-2.32974e-08
-4.0289e-08
7.80453e-07
-3.13019e-08
-3.84356e-08
7.56189e-07
-3.52787e-08
-3.52787e-08
7.17257e-07
-3.04559e-08
6.59184e-07
-3.47858e-08
3.04559e-08
5.9269e-07
-2.99981e-08
-2.99981e-08
2.72731e-08
6.59184e-07
-3.47858e-08
2.03273e-08
7.06093e-07
-3.75259e-08
1.08326e-08
7.35733e-07
-3.93183e-08
-1.32223e-15
7.50093e-07
-4.01644e-08
-1.08326e-08
7.50093e-07
-4.01644e-08
-2.03273e-08
7.35733e-07
-3.93183e-08
-2.72731e-08
7.06093e-07
-3.75259e-08
-3.04559e-08
6.59184e-07
-3.47858e-08
5.9269e-07
-2.99982e-08
-2.99982e-08
1.22318e-08
1.22318e-08
5.90922e-07
-1.13477e-08
-1.13477e-08
1.13752e-08
1.47957e-08
6.5883e-07
-1.35846e-08
8.70975e-09
1.66162e-08
7.072e-07
-1.5057e-08
4.71705e-09
1.77794e-08
7.38009e-07
-1.60636e-08
1.35654e-16
1.83419e-08
7.53011e-07
-1.65421e-08
-4.71705e-09
1.83419e-08
7.53011e-07
-1.65421e-08
-8.70975e-09
1.77794e-08
7.38009e-07
-1.60636e-08
-1.13752e-08
1.66162e-08
7.072e-07
-1.5057e-08
-1.22318e-08
1.47957e-08
6.5883e-07
-1.35846e-08
1.22318e-08
5.90922e-07
-1.13477e-08
-1.13477e-08
1.47957e-08
1.13752e-08
6.5883e-07
-1.35846e-08
1.37518e-08
1.37518e-08
7.19345e-07
1.05401e-08
1.54729e-08
7.60544e-07
5.70228e-09
1.65439e-08
7.86526e-07
1.68374e-15
1.70562e-08
7.9918e-07
-5.70228e-09
1.70562e-08
7.9918e-07
-1.05401e-08
1.65439e-08
7.86526e-07
-1.37518e-08
1.54729e-08
7.60544e-07
-1.47957e-08
1.37518e-08
7.19345e-07
1.13752e-08
6.5883e-07
-1.35846e-08
1.66162e-08
8.70975e-09
7.072e-07
-1.5057e-08
1.54729e-08
1.05401e-08
7.60544e-07
1.18562e-08
1.18562e-08
7.96437e-07
6.40796e-09
1.26612e-08
8.19207e-07
1.50029e-15
1.30408e-08
8.30381e-07
-6.40795e-09
1.30408e-08
8.30381e-07
-1.18562e-08
1.26612e-08
8.19207e-07
-1.54729e-08
1.18562e-08
7.96437e-07
-1.66162e-08
1.05401e-08
7.60544e-07
8.70975e-09
7.072e-07
-1.5057e-08
1.77794e-08
4.71705e-09
7.38009e-07
-1.60636e-08
1.65439e-08
5.70228e-09
7.86526e-07
1.26612e-08
6.40796e-09
8.19207e-07
6.83719e-09
6.83719e-09
8.40139e-07
1.04124e-15
7.03813e-09
8.50482e-07
-6.83718e-09
7.03813e-09
8.50482e-07
-1.26612e-08
6.83719e-09
8.40139e-07
-1.65439e-08
6.40795e-09
8.19207e-07
-1.77794e-08
5.70228e-09
7.86526e-07
4.71705e-09
7.38009e-07
-1.60636e-08
1.83419e-08
6.22092e-16
7.53011e-07
-1.65421e-08
1.70562e-08
1.67841e-15
7.9918e-07
1.30408e-08
1.55211e-15
8.30381e-07
7.03813e-09
1.26847e-15
8.50482e-07
7.88453e-16
1.09681e-15
8.60448e-07
-7.03813e-09
1.08906e-15
8.60448e-07
-1.30408e-08
9.20439e-16
8.50482e-07
-1.70562e-08
3.03888e-16
8.30381e-07
-1.83419e-08
-8.06035e-16
7.9918e-07
-4.04447e-16
7.53011e-07
-1.65421e-08
1.83419e-08
-4.71705e-09
7.53011e-07
-1.65421e-08
1.70562e-08
-5.70228e-09
7.9918e-07
1.30408e-08
-6.40795e-09
8.30381e-07
7.03813e-09
-6.83718e-09
8.50482e-07
8.10998e-16
-7.03812e-09
8.60448e-07
-7.03813e-09
-7.03812e-09
8.60448e-07
-1.30408e-08
-6.83718e-09
8.50482e-07
-1.70562e-08
-6.40795e-09
8.30381e-07
-1.83419e-08
-5.70228e-09
7.9918e-07
-4.71705e-09
7.53011e-07
-1.65421e-08
1.77794e-08
-8.70975e-09
7.38009e-07
-1.60636e-08
1.65439e-08
-1.05401e-08
7.86526e-07
1.26612e-08
-1.18562e-08
8.19207e-07
6.83719e-09
-1.26612e-08
8.40139e-07
7.01625e-16
-1.30408e-08
8.50482e-07
-6.83719e-09
-1.30408e-08
8.50482e-07
-1.26612e-08
-1.26612e-08
8.40139e-07
-1.65439e-08
-1.18562e-08
8.19207e-07
-1.77794e-08
-1.05401e-08
7.86526e-07
-8.70975e-09
7.38009e-07
-1.60636e-08
1.66162e-08
-1.13752e-08
7.072e-07
-1.5057e-08
1.54729e-08
-1.37518e-08
7.60544e-07
1.18562e-08
-1.54729e-08
7.96437e-07
6.40795e-09
-1.65439e-08
8.19207e-07
3.2854e-16
-1.70562e-08
8.30381e-07
-6.40795e-09
-1.70562e-08
8.30381e-07
-1.18562e-08
-1.65439e-08
8.19207e-07
-1.54729e-08
-1.54729e-08
7.96437e-07
-1.66162e-08
-1.37518e-08
7.60544e-07
-1.13752e-08
7.072e-07
-1.5057e-08
1.47957e-08
-1.22318e-08
6.5883e-07
-1.35846e-08
1.37518e-08
-1.47957e-08
7.19345e-07
1.05401e-08
-1.66162e-08
7.60544e-07
5.70228e-09
-1.77794e-08
7.86526e-07
-6.73093e-16
-1.83419e-08
7.9918e-07
-5.70228e-09
-1.83419e-08
7.9918e-07
-1.05401e-08
-1.77794e-08
7.86526e-07
-1.37518e-08
-1.66162e-08
7.60544e-07
-1.47957e-08
-1.47957e-08
7.19345e-07
-1.22318e-08
6.5883e-07
-1.35846e-08
1.22318e-08
5.90922e-07
-1.13477e-08
-1.13477e-08
1.13752e-08
6.5883e-07
-1.35846e-08
8.70975e-09
7.072e-07
-1.5057e-08
4.71705e-09
7.38009e-07
-1.60636e-08
-5.3107e-16
7.53011e-07
-1.65421e-08
-4.71705e-09
7.53011e-07
-1.65421e-08
-8.70975e-09
7.38009e-07
-1.60636e-08
-1.13752e-08
7.072e-07
-1.5057e-08
-1.22318e-08
6.5883e-07
-1.35846e-08
5.90922e-07
-1.13477e-08
-1.13477e-08
4.09273e-09
4.09273e-09
5.89622e-07
-3.44276e-09
-3.44276e-09
4.07096e-09
5.37972e-09
6.57938e-07
-4.4663e-09
3.25348e-09
6.34901e-09
7.06859e-07
-5.19117e-09
1.80623e-09
7.0011e-09
7.38168e-07
-5.71238e-09
2.67174e-16
7.32208e-09
7.53458e-07
-5.96277e-09
-1.80623e-09
7.32208e-09
7.53458e-07
-5.96277e-09
-3.25348e-09
7.0011e-09
7.38168e-07
-5.71238e-09
-4.07096e-09
6.34901e-09
7.06859e-07
-5.19117e-09
-4.09273e-09
5.37972e-09
6.57938e-07
-4.4663e-09
4.09273e-09
5.89622e-07
-3.44276e-09
-3.44276e-09
5.37972e-09
4.07096e-09
6.57938e-07
-4.4663e-09
5.33648e-09
5.33648e-09
7.19432e-07
4.25629e-09
6.29985e-09
7.61673e-07
2.35398e-09
6.92715e-09
7.88502e-07
5.45974e-16
7.23376e-09
8.01622e-07
-2.35398e-09
7.23376e-09
8.01622e-07
-4.25629e-09
6.92715e-09
7.88502e-07
-5.33648e-09
6.29985e-09
7.61673e-07
-5.37972e-09
5.33648e-09
7.19432e-07
4.07096e-09
6.57938e-07
-4.4663e-09
6.34901e-09
3.25348e-09
7.06859e-07
-5.19117e-09
6.29985e-09
4.25629e-09
7.61673e-07
5.0145e-09
5.0145e-09
7.99008e-07
2.76628e-09
5.49848e-09
8.22884e-07
4.10172e-16
5.73207e-09
8.34649e-07
-2.76628e-09
5.73207e-09
8.34649e-07
-5.0145e-09
5.49848e-09
8.22884e-07
-6.29985e-09
5.0145e-09
7.99008e-07
-6.34901e-09
4.25629e-09
7.61673e-07
3.25348e-09
7.06859e-07
-5.19117e-09
7.0011e-09
1.80623e-09
7.38168e-07
-5.71238e-09
6.92715e-09
2.35398e-09
7.88502e-07
5.49848e-09
2.76628e-09
8.22884e-07
3.02755e-09
3.02755e-09
8.45081e-07
5.91275e-16
3.1528e-09
8.56089e-07
-3.02755e-09
3.1528e-09
8.56089e-07
-5.49847e-09
3.02755e-09
8.45081e-07
-6.92715e-09
2.76628e-09
8.22884e-07
-7.0011e-09
2.35398e-09
7.88502e-07
1.80623e-09
7.38168e-07
-5.71238e-09
7.32208e-09
3.73058e-16
7.53458e-07
-5.96277e-09
7.23376e-09
6.40279e-16
8.01622e-07
5.73207e-09
2.99526e-16
8.34649e-07
3.1528e-09
4.01905e-16
8.56089e-07
7.41185e-16
6.49066e-16
8.66754e-07
-3.1528e-09
8.25585e-16
8.66754e-07
-5.73207e-09
9.5268e-16
8.56089e-07
-7.23376e-09
5.85019e-16
8.34649e-07
-7.32208e-09
-2.03689e-16
8.01622e-07
-1.52159e-16
7.53458e-07
-5.96277e-09
7.32208e-09
-1.80623e-09
7.53458e-07
-5.96277e-09
7.23376e-09
-2.35398e-09
8.01622e-07
5.73207e-09
-2.76628e-09
8.34649e-07
3.15281e-09
-3.02755e-09
8.56089e-07
1.06765e-15
-3.1528e-09
8.66754e-07
-3.1528e-09
-3.1528e-09
8.66754e-07
-5.73207e-09
-3.02755e-09
8.56089e-07
-7.23376e-09
-2.76628e-09
8.34649e-07
-7.32208e-09
-2.35398e-09
8.01622e-07
-1.80623e-09
7.53458e-07
-5.96277e-09
7.0011e-09
-3.25348e-09
7.38168e-07
-5.71238e-09
6.92715e-09
-4.25629e-09
7.88502e-07
5.49848e-09
-5.0145e-09
8.22884e-07
3.02755e-09
-5.49847e-09
8.45081e-07
9.68654e-16
-5.73207e-09
8.56089e-07
-3.02755e-09
-5.73207e-09
8.56089e-07
-5.49847e-09
-5.49847e-09
8.45081e-07
-6.92715e-09
-5.0145e-09
8.22884e-07
-7.00109e-09
-4.25629e-09
7.88502e-07
-3.25348e-09
7.38168e-07
-5.71238e-09
6.34901e-09
-4.07096e-09
7.06859e-07
-5.19117e-09
6.29985e-09
-5.33648e-09
7.61673e-07
5.0145e-09
-6.29985e-09
7.99008e-07
2.76628e-09
-6.92715e-09
8.22884e-07
4.20055e-16
-7.23376e-09
8.34649e-07
-2.76628e-09
-7.23376e-09
8.34649e-07
-5.0145e-09
-6.92715e-09
8.22884e-07
-6.29985e-09
-6.29985e-09
7.99008e-07
-6.34901e-09
-5.33648e-09
7.61673e-07
-4.07096e-09
7.06859e-07
-5.19117e-09
5.37972e-09
-4.09273e-09
6.57938e-07
-4.4663e-09
5.33648e-09
-5.37972e-09
7.19432e-07
4.25629e-09
-6.34901e-09
7.61673e-07
2.35398e-09
-7.0011e-09
7.88502e-07
-3.41473e-16
-7.32208e-09
8.01622e-07
-2.35398e-09
-7.32208e-09
8.01622e-07
-4.25629e-09
-7.00109e-09
7.88502e-07
-5.33648e-09
-6.34901e-09
7.61673e-07
-5.37972e-09
-5.37972e-09
7.19432e-07
-4.09273e-09
6.57938e-07
-4.4663e-09
4.09273e-09
5.89622e-07
-3.44276e-09
-3.44276e-09
4.07096e-09
6.57938e-07
-4.4663e-09
3.25348e-09
7.06859e-07
-5.19117e-09
1.80623e-09
7.38168e-07
-5.71238e-09
-3.76491e-16
7.53458e-07
-5.96277e-09
-1.80623e-09
7.53458e-07
-5.96277e-09
-3.25348e-09
7.38168e-07
-5.71238e-09
-4.07096e-09
7.06859e-07
-5.19117e-09
-4.09273e-09
6.57938e-07
-4.4663e-09
5.89622e-07
-3.44276e-09
-3.44276e-09
1.10373e-09
1.10373e-09
5.8904e-07
-8.12559e-10
-8.12559e-10
1.19879e-09
1.62927e-09
6.57409e-07
-1.19468e-09
1.00782e-09
2.05018e-09
7.06478e-07
-1.4779e-09
5.7577e-10
2.35032e-09
7.37948e-07
-1.69814e-09
4.4086e-16
2.50087e-09
7.53338e-07
-1.80507e-09
-5.75769e-10
2.50087e-09
7.53338e-07
-1.80507e-09
-1.00781e-09
2.35032e-09
7.37948e-07
-1.69814e-09
-1.19879e-09
2.05018e-09
7.06478e-07
-1.4779e-09
-1.10373e-09
1.62927e-09
6.57409e-07
-1.19468e-09
1.10373e-09
5.8904e-07
-8.1256e-10
-8.12558e-10
1.62927e-09
1.19879e-09
6.57409e-07
-1.19468e-09
1.7458e-09
1.7458e-09
7.19199e-07
1.45708e-09
2.18924e-09
7.61823e-07
8.2613e-10
2.49366e-09
7.8899e-07
8.01274e-16
2.64605e-09
8.02303e-07
-8.26129e-10
2.64605e-09
8.02303e-07
-1.45708e-09
2.49366e-09
7.8899e-07
-1.7458e-09
2.18924e-09
7.61823e-07
-1.62927e-09
1.7458e-09
7.19199e-07
1.19879e-09
6.57409e-07
-1.19468e-09
2.05018e-09
1.00782e-09
7.06478e-07
-1.4779e-09
2.18924e-09
1.45708e-09
7.61823e-07
1.81852e-09
1.81852e-09
7.99749e-07
1.02637e-09
2.06138e-09
8.24108e-07
9.15417e-16
2.18187e-09
8.3614e-07
-1.02637e-09
2.18187e-09
8.3614e-07
-1.81852e-09
2.06138e-09
8.24108e-07
-2.18924e-09
1.81852e-09
7.99749e-07
-2.05018e-09
1.45708e-09
7.61823e-07
1.00781e-09
7.06478e-07
-1.4779e-09
2.35032e-09
5.7577e-10
7.37948e-07
-1.69814e-09
2.49366e-09
8.26131e-10
7.8899e-07
2.06139e-09
1.02637e-09
8.24108e-07
1.15985e-09
1.15985e-09
8.46884e-07
8.71381e-16
1.22575e-09
8.58205e-07
-1.15985e-09
1.22575e-09
8.58205e-07
-2.06138e-09
1.15985e-09
8.46884e-07
-2.49366e-09
1.02637e-09
8.24108e-07
-2.35032e-09
8.26129e-10
7.8899e-07
5.75769e-10
7.37948e-07
-1.69814e-09
2.50087e-09
4.93213e-16
7.53338e-07
-1.80507e-09
2.64605e-09
9.95038e-16
8.02303e-07
2.18187e-09
9.04295e-16
8.3614e-07
1.22575e-09
9.0057e-16
8.58205e-07
6.82243e-16
8.88878e-16
8.69205e-07
-1.22575e-09
8.34142e-16
8.69205e-07
-2.18187e-09
7.81759e-16
8.58205e-07
-2.64605e-09
6.28234e-16
8.3614e-07
-2.50087e-09
2.21155e-16
8.02303e-07
1.40973e-16
7.53338e-07
-1.80507e-09
2.50087e-09
-5.75769e-10
7.53338e-07
-1.80507e-09
2.64605e-09
-8.26129e-10
8.02303e-07
2.18187e-09
-1.02637e-09
8.3614e-07
1.22575e-09
-1.15984e-09
8.58205e-07
7.09005e-16
-1.22575e-09
8.69205e-07
-1.22575e-09
-1.22575e-09
8.69205e-07
-2.18187e-09
-1.15985e-09
8.58205e-07
-2.64605e-09
-1.02637e-09
8.3614e-07
-2.50087e-09
-8.26129e-10
8.02303e-07
-5.75769e-10
7.53338e-07
-1.80507e-09
2.35032e-09
-1.00781e-09
7.37948e-07
-1.69814e-09
2.49366e-09
-1.45708e-09
7.8899e-07
2.06138e-09
-1.81852e-09
8.24108e-07
1.15985e-09
-2.06138e-09
8.46884e-07
6.71357e-16
-2.18187e-09
8.58205e-07
-1.15985e-09
-2.18187e-09
8.58205e-07
-2.06138e-09
-2.06138e-09
8.46884e-07
-2.49366e-09
-1.81852e-09
8.24108e-07
-2.35032e-09
-1.45708e-09
7.8899e-07
-1.00781e-09
7.37948e-07
-1.69814e-09
2.05018e-09
-1.19879e-09
7.06478e-07
-1.4779e-09
2.18924e-09
-1.7458e-09
7.61823e-07
1.81852e-09
-2.18924e-09
7.99749e-07
1.02637e-09
-2.49366e-09
8.24108e-07
6.20289e-16
-2.64605e-09
8.3614e-07
-1.02637e-09
-2.64605e-09
8.3614e-07
-1.81852e-09
-2.49366e-09
8.24108e-07
-2.18924e-09
-2.18924e-09
7.99749e-07
-2.05017e-09
-1.7458e-09
7.61823e-07
-1.19879e-09
7.06478e-07
-1.4779e-09
1.62927e-09
-1.10373e-09
6.57409e-07
-1.19468e-09
1.7458e-09
-1.62927e-09
7.19199e-07
1.45708e-09
-2.05018e-09
7.61823e-07
8.2613e-10
-2.35032e-09
7.8899e-07
3.78099e-16
-2.50087e-09
8.02303e-07
-8.26129e-10
-2.50087e-09
8.02303e-07
-1.45708e-09
-2.35032e-09
7.8899e-07
-1.7458e-09
-2.05018e-09
7.61823e-07
-1.62927e-09
-1.62927e-09
7.19199e-07
-1.10373e-09
6.57409e-07
-1.19468e-09
1.10373e-09
5.8904e-07
-8.12559e-10
-8.12559e-10
1.19879e-09
6.57409e-07
-1.19468e-09
1.00781e-09
7.06478e-07
-1.4779e-09
5.75769e-10
7.37948e-07
-1.69814e-09
1.91625e-16
7.53338e-07
-1.80507e-09
-5.7577e-10
7.53338e-07
-1.80507e-09
-1.00781e-09
7.37948e-07
-1.69814e-09
-1.19879e-09
7.06478e-07
-1.4779e-09
-1.10373e-09
6.57409e-07
-1.19468e-09
5.8904e-07
-8.12559e-10
-8.12558e-10
2.55929e-10
2.55929e-10
5.88823e-07
-1.47507e-10
-1.47507e-10
3.12697e-10
4.38216e-10
6.57184e-07
-2.70633e-10
2.79213e-10
5.90942e-10
7.06286e-07
-3.65742e-10
1.64708e-10
7.05233e-10
7.37801e-07
-4.4382e-10
7.00031e-17
7.6317e-10
7.53221e-07
-4.81534e-10
-1.64708e-10
7.63169e-10
7.53221e-07
-4.81533e-10
-2.79213e-10
7.05233e-10
7.37801e-07
-4.43819e-10
-3.12697e-10
5.90943e-10
7.06286e-07
-3.65742e-10
-2.5593e-10
4.38217e-10
6.57184e-07
-2.70633e-10
2.55929e-10
5.88823e-07
-1.47508e-10
-1.47507e-10
4.38216e-10
3.12696e-10
6.57184e-07
-2.70633e-10
5.12033e-10
5.12032e-10
7.19051e-07
4.47571e-10
6.81319e-10
7.61797e-07
2.60029e-10
8.02767e-10
7.8908e-07
1.33108e-16
8.64629e-10
8.02462e-07
-2.60028e-10
8.64629e-10
8.02462e-07
-4.47571e-10
8.02767e-10
7.8908e-07
-5.12033e-10
6.8132e-10
7.61797e-07
-4.38217e-10
5.12034e-10
7.19051e-07
3.12696e-10
6.57184e-07
-2.70633e-10
5.90942e-10
2.79213e-10
7.06286e-07
-3.65741e-10
6.81319e-10
4.47571e-10
7.61797e-07
5.90005e-10
5.90005e-10
7.99932e-07
3.40301e-10
6.89971e-10
8.24471e-07
1.22885e-16
7.40617e-10
8.36604e-07
-3.40301e-10
7.40617e-10
8.36604e-07
-5.90005e-10
6.89971e-10
8.24471e-07
-6.81319e-10
5.90006e-10
7.99932e-07
-5.90942e-10
4.47571e-10
7.61797e-07
2.79213e-10
7.06286e-07
-3.65741e-10
7.05233e-10
1.64708e-10
7.37801e-07
-4.43819e-10
8.02766e-10
2.60029e-10
7.8908e-07
6.89971e-10
3.40301e-10
8.24471e-07
3.96217e-10
3.96217e-10
8.47471e-07
2.14051e-16
4.24467e-10
8.58917e-07
-3.96216e-10
4.24467e-10
8.58917e-07
-6.8997e-10
3.96217e-10
8.47471e-07
-8.02766e-10