/*--------------------------------*- C++ -*----------------------------------*\
| =========                 |                                                 |
| \\      /  F ield         | OpenFOAM: The Open Source CFD Toolbox           |
|  \\    /   O peration     | Version:  2412                                  |
|   \\  /    A nd           | Website:  www.openfoam.com                      |
|    \\/     M anipulation  |                                                 |
\*---------------------------------------------------------------------------*/
FoamFile
{
    version     2.0;
    format      ascii;
    arch        "LSB;label=32;scalar=64";
    class       volVectorField;
    location    "5.4";
    object      U;
}
// * * * * * * * * * * * * * * * * * * * * * * * * * * * * * * * * * * * * * //

dimensions      [0 1 -1 0 0 0 0];

internalField   nonuniform List<vector> 
15000
(
(0.00122064 0.00122064 0.0104482)
(0.00090364 0.00114597 0.0104209)
(0.000616735 0.00112111 0.0103916)
(0.000362238 0.00109561 0.0103691)
(0.000118991 0.00108371 0.0103576)
(-0.000118991 0.00108371 0.0103576)
(-0.000362238 0.00109561 0.0103691)
(-0.000616735 0.00112111 0.0103916)
(-0.00090364 0.00114597 0.0104209)
(-0.00122064 0.00122064 0.0104482)
(0.00114597 0.00090364 0.0104209)
(0.000853865 0.000853865 0.0103737)
(0.00058434 0.000816998 0.0103341)
(0.00034053 0.000790237 0.0103074)
(0.000111659 0.000777071 0.0102942)
(-0.000111659 0.000777071 0.0102942)
(-0.00034053 0.000790237 0.0103074)
(-0.00058434 0.000816998 0.0103341)
(-0.000853865 0.000853865 0.0103737)
(-0.00114597 0.00090364 0.0104209)
(0.00112111 0.000616735 0.0103916)
(0.000816998 0.00058434 0.0103341)
(0.000554072 0.000554072 0.0102911)
(0.000320683 0.000531788 0.010263)
(0.000104859 0.000520486 0.0102493)
(-0.000104859 0.000520486 0.0102493)
(-0.000320683 0.000531788 0.010263)
(-0.000554072 0.000554072 0.0102911)
(-0.000816998 0.00058434 0.0103341)
(-0.00112111 0.000616735 0.0103916)
(0.00109561 0.000362238 0.0103691)
(0.000790237 0.00034053 0.0103074)
(0.000531788 0.000320683 0.010263)
(0.000306113 0.000306113 0.0102344)
(9.98521e-05 0.000298667 0.0102203)
(-9.98521e-05 0.000298667 0.0102203)
(-0.000306113 0.000306113 0.0102344)
(-0.000531788 0.000320683 0.010263)
(-0.000790237 0.00034053 0.0103074)
(-0.00109561 0.000362238 0.0103691)
(0.00108371 0.000118991 0.0103576)
(0.000777071 0.000111659 0.0102942)
(0.000520486 0.000104859 0.0102493)
(0.000298667 9.98521e-05 0.0102203)
(9.72876e-05 9.72876e-05 0.010206)
(-9.72876e-05 9.72876e-05 0.010206)
(-0.000298667 9.98521e-05 0.0102203)
(-0.000520486 0.000104859 0.0102493)
(-0.000777071 0.000111659 0.0102942)
(-0.00108371 0.000118991 0.0103576)
(0.00108371 -0.000118991 0.0103576)
(0.000777071 -0.000111659 0.0102942)
(0.000520486 -0.000104859 0.0102493)
(0.000298667 -9.98521e-05 0.0102203)
(9.72876e-05 -9.72876e-05 0.010206)
(-9.72876e-05 -9.72876e-05 0.010206)
(-0.000298667 -9.98521e-05 0.0102203)
(-0.000520486 -0.000104859 0.0102493)
(-0.000777071 -0.000111659 0.0102942)
(-0.00108371 -0.000118991 0.0103576)
(0.00109561 -0.000362238 0.0103691)
(0.000790237 -0.00034053 0.0103074)
(0.000531788 -0.000320683 0.010263)
(0.000306113 -0.000306113 0.0102344)
(9.98521e-05 -0.000298667 0.0102203)
(-9.98521e-05 -0.000298667 0.0102203)
(-0.000306113 -0.000306113 0.0102344)
(-0.000531788 -0.000320683 0.010263)
(-0.000790237 -0.00034053 0.0103074)
(-0.00109561 -0.000362238 0.0103691)
(0.00112111 -0.000616735 0.0103916)
(0.000816998 -0.00058434 0.0103341)
(0.000554072 -0.000554072 0.0102911)
(0.000320683 -0.000531788 0.010263)
(0.000104859 -0.000520486 0.0102493)
(-0.000104859 -0.000520486 0.0102493)
(-0.000320683 -0.000531788 0.010263)
(-0.000554072 -0.000554072 0.0102911)
(-0.000816998 -0.00058434 0.0103341)
(-0.00112111 -0.000616735 0.0103916)
(0.00114597 -0.00090364 0.0104209)
(0.000853865 -0.000853865 0.0103737)
(0.00058434 -0.000816998 0.0103341)
(0.00034053 -0.000790237 0.0103074)
(0.000111659 -0.000777071 0.0102942)
(-0.000111659 -0.000777071 0.0102942)
(-0.00034053 -0.000790237 0.0103074)
(-0.00058434 -0.000816998 0.0103341)
(-0.000853865 -0.000853865 0.0103737)
(-0.00114597 -0.00090364 0.0104209)
(0.00122064 -0.00122064 0.0104482)
(0.00090364 -0.00114597 0.0104209)
(0.000616735 -0.00112111 0.0103916)
(0.000362238 -0.00109561 0.0103691)
(0.000118991 -0.00108371 0.0103576)
(-0.000118991 -0.00108371 0.0103576)
(-0.000362238 -0.00109561 0.0103691)
(-0.000616735 -0.00112111 0.0103916)
(-0.00090364 -0.00114597 0.0104209)
(-0.00122064 -0.00122064 0.0104482)
(0.000719078 0.000719078 0.0126188)
(0.000568542 0.00075822 0.0125929)
(0.000404515 0.000782891 0.0125052)
(0.000242134 0.000793836 0.0124193)
(8.02038e-05 0.00079939 0.0123702)
(-8.02038e-05 0.00079939 0.0123702)
(-0.000242134 0.000793836 0.0124193)
(-0.000404515 0.000782891 0.0125052)
(-0.000568542 0.00075822 0.0125929)
(-0.000719078 0.000719078 0.0126188)
(0.00075822 0.000568542 0.0125929)
(0.000590017 0.000590017 0.0124401)
(0.000415765 0.000599323 0.0122632)
(0.000246637 0.000601935 0.0121275)
(8.15775e-05 0.000603072 0.0120565)
(-8.15775e-05 0.000603072 0.0120565)
(-0.000246637 0.000601935 0.0121275)
(-0.000415765 0.000599323 0.0122632)
(-0.000590017 0.000590017 0.0124401)
(-0.00075822 0.000568542 0.0125929)
(0.000782891 0.000404515 0.0125052)
(0.000599323 0.000415765 0.0122632)
(0.000419174 0.000419174 0.0120377)
(0.000247523 0.000419375 0.011879)
(8.17893e-05 0.000419282 0.0117991)
(-8.17893e-05 0.000419282 0.0117991)
(-0.000247523 0.000419375 0.011879)
(-0.000419174 0.000419174 0.0120377)
(-0.000599323 0.000415765 0.0122632)
(-0.000782891 0.000404515 0.0125052)
(0.000793836 0.000242134 0.0124193)
(0.000601935 0.000246637 0.0121275)
(0.000419375 0.000247523 0.011879)
(0.000247185 0.000247185 0.0117114)
(8.16472e-05 0.000246914 0.0116286)
(-8.16472e-05 0.000246914 0.0116286)
(-0.000247185 0.000247185 0.0117114)
(-0.000419375 0.000247523 0.011879)
(-0.000601935 0.000246637 0.0121275)
(-0.000793836 0.000242134 0.0124193)
(0.00079939 8.02038e-05 0.0123702)
(0.000603072 8.15775e-05 0.0120565)
(0.000419282 8.17893e-05 0.0117991)
(0.000246914 8.16472e-05 0.0116286)
(8.15427e-05 8.15427e-05 0.011545)
(-8.15427e-05 8.15427e-05 0.011545)
(-0.000246914 8.16472e-05 0.0116286)
(-0.000419282 8.17893e-05 0.0117991)
(-0.000603072 8.15775e-05 0.0120565)
(-0.00079939 8.02038e-05 0.0123702)
(0.00079939 -8.02038e-05 0.0123702)
(0.000603072 -8.15775e-05 0.0120565)
(0.000419282 -8.17893e-05 0.0117991)
(0.000246914 -8.16472e-05 0.0116286)
(8.15427e-05 -8.15427e-05 0.011545)
(-8.15427e-05 -8.15427e-05 0.011545)
(-0.000246914 -8.16472e-05 0.0116286)
(-0.000419282 -8.17893e-05 0.0117991)
(-0.000603072 -8.15775e-05 0.0120565)
(-0.00079939 -8.02038e-05 0.0123702)
(0.000793836 -0.000242134 0.0124193)
(0.000601935 -0.000246637 0.0121275)
(0.000419375 -0.000247523 0.011879)
(0.000247185 -0.000247185 0.0117114)
(8.16472e-05 -0.000246914 0.0116286)
(-8.16472e-05 -0.000246914 0.0116286)
(-0.000247185 -0.000247185 0.0117114)
(-0.000419375 -0.000247523 0.011879)
(-0.000601935 -0.000246637 0.0121275)
(-0.000793836 -0.000242134 0.0124193)
(0.000782891 -0.000404515 0.0125052)
(0.000599323 -0.000415765 0.0122632)
(0.000419174 -0.000419174 0.0120377)
(0.000247523 -0.000419375 0.011879)
(8.17893e-05 -0.000419282 0.0117991)
(-8.17893e-05 -0.000419282 0.0117991)
(-0.000247523 -0.000419375 0.011879)
(-0.000419174 -0.000419174 0.0120377)
(-0.000599323 -0.000415765 0.0122632)
(-0.000782891 -0.000404515 0.0125052)
(0.00075822 -0.000568542 0.0125929)
(0.000590017 -0.000590017 0.0124401)
(0.000415765 -0.000599323 0.0122632)
(0.000246637 -0.000601935 0.0121275)
(8.15775e-05 -0.000603072 0.0120565)
(-8.15775e-05 -0.000603072 0.0120565)
(-0.000246637 -0.000601935 0.0121275)
(-0.000415765 -0.000599323 0.0122632)
(-0.000590017 -0.000590017 0.0124401)
(-0.00075822 -0.000568542 0.0125929)
(0.000719078 -0.000719078 0.0126188)
(0.000568542 -0.00075822 0.0125929)
(0.000404515 -0.000782891 0.0125052)
(0.000242134 -0.000793836 0.0124193)
(8.02038e-05 -0.00079939 0.0123702)
(-8.02038e-05 -0.00079939 0.0123702)
(-0.000242134 -0.000793836 0.0124193)
(-0.000404515 -0.000782891 0.0125052)
(-0.000568542 -0.00075822 0.0125929)
(-0.000719078 -0.000719078 0.0126188)
(0.000469026 0.000469026 0.0124921)
(0.000393213 0.000526258 0.0127024)
(0.000296118 0.000566415 0.012758)
(0.000183493 0.000591055 0.0127514)
(6.18827e-05 0.000603373 0.0127374)
(-6.18827e-05 0.000603373 0.0127374)
(-0.000183493 0.000591055 0.0127514)
(-0.000296118 0.000566415 0.012758)
(-0.000393213 0.000526258 0.0127024)
(-0.000469026 0.000469026 0.0124921)
(0.000526258 0.000393213 0.0127024)
(0.000441115 0.000441115 0.012756)
(0.000329685 0.000472489 0.0126919)
(0.000203338 0.000490884 0.0126158)
(6.85641e-05 0.000499781 0.0125709)
(-6.85641e-05 0.000499781 0.0125709)
(-0.000203338 0.000490884 0.0126158)
(-0.000329685 0.000472489 0.0126919)
(-0.000441115 0.000441115 0.012756)
(-0.000526258 0.000393213 0.0127024)
(0.000566415 0.000296118 0.012758)
(0.000472489 0.000329685 0.0126919)
(0.000351793 0.000351793 0.0125575)
(0.00021637 0.00036468 0.0124468)
(7.29272e-05 0.000370781 0.0123883)
(-7.29271e-05 0.000370781 0.0123883)
(-0.00021637 0.00036468 0.0124468)
(-0.000351793 0.000351793 0.0125575)
(-0.000472489 0.000329685 0.0126919)
(-0.000566415 0.000296118 0.012758)
(0.000591055 0.000183493 0.0127514)
(0.000490884 0.000203338 0.0126158)
(0.00036468 0.00021637 0.0124468)
(0.000223982 0.000223982 0.0123219)
(7.54679e-05 0.000227543 0.0122584)
(-7.54678e-05 0.000227543 0.0122584)
(-0.000223982 0.000223982 0.0123219)
(-0.00036468 0.00021637 0.0124468)
(-0.000490884 0.000203338 0.0126158)
(-0.000591055 0.000183493 0.0127514)
(0.000603373 6.18827e-05 0.0127374)
(0.000499781 6.85641e-05 0.0125709)
(0.000370781 7.29272e-05 0.0123883)
(0.000227543 7.54679e-05 0.0122584)
(7.66467e-05 7.66467e-05 0.0121935)
(-7.66466e-05 7.66467e-05 0.0121935)
(-0.000227543 7.54679e-05 0.0122584)
(-0.000370781 7.29272e-05 0.0123883)
(-0.000499781 6.85641e-05 0.0125709)
(-0.000603373 6.18827e-05 0.0127374)
(0.000603373 -6.18827e-05 0.0127374)
(0.000499781 -6.85641e-05 0.0125709)
(0.000370781 -7.29271e-05 0.0123883)
(0.000227543 -7.54678e-05 0.0122584)
(7.66467e-05 -7.66466e-05 0.0121935)
(-7.66467e-05 -7.66466e-05 0.0121935)
(-0.000227543 -7.54678e-05 0.0122584)
(-0.000370781 -7.29272e-05 0.0123883)
(-0.000499781 -6.85641e-05 0.0125709)
(-0.000603373 -6.18827e-05 0.0127374)
(0.000591055 -0.000183493 0.0127514)
(0.000490884 -0.000203338 0.0126158)
(0.00036468 -0.00021637 0.0124468)
(0.000223982 -0.000223982 0.0123219)
(7.54679e-05 -0.000227543 0.0122584)
(-7.54678e-05 -0.000227543 0.0122584)
(-0.000223982 -0.000223982 0.0123219)
(-0.00036468 -0.00021637 0.0124468)
(-0.000490884 -0.000203338 0.0126158)
(-0.000591055 -0.000183493 0.0127514)
(0.000566415 -0.000296118 0.012758)
(0.000472489 -0.000329685 0.0126919)
(0.000351793 -0.000351793 0.0125575)
(0.00021637 -0.00036468 0.0124468)
(7.29272e-05 -0.000370781 0.0123883)
(-7.29272e-05 -0.000370781 0.0123883)
(-0.00021637 -0.00036468 0.0124468)
(-0.000351793 -0.000351793 0.0125575)
(-0.000472489 -0.000329684 0.0126919)
(-0.000566415 -0.000296118 0.012758)
(0.000526258 -0.000393213 0.0127024)
(0.000441115 -0.000441115 0.012756)
(0.000329685 -0.000472489 0.0126919)
(0.000203338 -0.000490884 0.0126158)
(6.85641e-05 -0.000499781 0.0125709)
(-6.85641e-05 -0.000499781 0.0125709)
(-0.000203338 -0.000490884 0.0126158)
(-0.000329684 -0.000472489 0.0126919)
(-0.000441115 -0.000441115 0.012756)
(-0.000526258 -0.000393213 0.0127024)
(0.000469026 -0.000469026 0.0124921)
(0.000393213 -0.000526258 0.0127024)
(0.000296118 -0.000566415 0.012758)
(0.000183493 -0.000591055 0.0127514)
(6.18827e-05 -0.000603373 0.0127374)
(-6.18827e-05 -0.000603373 0.0127374)
(-0.000183493 -0.000591055 0.0127514)
(-0.000296118 -0.000566415 0.012758)
(-0.000393213 -0.000526258 0.0127024)
(-0.000469026 -0.000469026 0.0124921)
(0.000181863 0.000181863 0.0126645)
(0.000162382 0.00022484 0.0129683)
(0.000130104 0.000256201 0.013093)
(8.3425e-05 0.000277936 0.0131307)
(2.86366e-05 0.000288932 0.0131379)
(-2.86366e-05 0.000288932 0.0131379)
(-8.3425e-05 0.000277936 0.0131307)
(-0.000130104 0.000256201 0.013093)
(-0.000162382 0.00022484 0.0129683)
(-0.000181863 0.000181863 0.0126645)
(0.00022484 0.000162382 0.0129683)
(0.00020266 0.00020266 0.0131294)
(0.000160527 0.00023244 0.0131383)
(0.000102691 0.000251977 0.0131073)
(3.52471e-05 0.000261743 0.0130836)
(-3.52471e-05 0.000261743 0.0130836)
(-0.000102691 0.000251977 0.0131073)
(-0.000160527 0.00023244 0.0131383)
(-0.00020266 0.00020266 0.0131294)
(-0.00022484 0.000162382 0.0129683)
(0.000256201 0.000130104 0.013093)
(0.00023244 0.000160527 0.0131383)
(0.000183782 0.000183782 0.0130767)
(0.000117328 0.000198925 0.0130097)
(4.0256e-05 0.000206421 0.0129715)
(-4.0256e-05 0.000206421 0.0129715)
(-0.000117328 0.000198925 0.0130097)
(-0.000183782 0.000183782 0.0130767)
(-0.00023244 0.000160527 0.0131383)
(-0.000256201 0.000130104 0.013093)
(0.000277936 8.3425e-05 0.0131307)
(0.000251977 0.000102691 0.0131073)
(0.000198925 0.000117328 0.0130097)
(0.000126831 0.000126831 0.0129268)
(4.3498e-05 0.000131502 0.0128828)
(-4.3498e-05 0.000131502 0.0128828)
(-0.000126831 0.000126831 0.0129268)
(-0.000198925 0.000117328 0.0130097)
(-0.000251977 0.000102691 0.0131073)
(-0.000277936 8.3425e-05 0.0131307)
(0.000288932 2.86366e-05 0.0131379)
(0.000261743 3.52471e-05 0.0130836)
(0.000206421 4.0256e-05 0.0129715)
(0.000131502 4.3498e-05 0.0128828)
(4.50843e-05 4.50843e-05 0.0128367)
(-4.50842e-05 4.50843e-05 0.0128367)
(-0.000131502 4.3498e-05 0.0128828)
(-0.000206421 4.0256e-05 0.0129715)
(-0.000261743 3.52471e-05 0.0130836)
(-0.000288932 2.86366e-05 0.0131379)
(0.000288932 -2.86366e-05 0.0131379)
(0.000261743 -3.52471e-05 0.0130836)
(0.000206421 -4.0256e-05 0.0129715)
(0.000131502 -4.3498e-05 0.0128828)
(4.50843e-05 -4.50842e-05 0.0128367)
(-4.50842e-05 -4.50842e-05 0.0128367)
(-0.000131502 -4.3498e-05 0.0128828)
(-0.000206421 -4.0256e-05 0.0129715)
(-0.000261743 -3.52471e-05 0.0130836)
(-0.000288932 -2.86366e-05 0.0131379)
(0.000277936 -8.3425e-05 0.0131307)
(0.000251977 -0.000102691 0.0131073)
(0.000198925 -0.000117328 0.0130097)
(0.000126831 -0.000126831 0.0129268)
(4.3498e-05 -0.000131502 0.0128828)
(-4.3498e-05 -0.000131502 0.0128828)
(-0.000126831 -0.000126831 0.0129268)
(-0.000198925 -0.000117328 0.0130097)
(-0.000251977 -0.000102691 0.0131073)
(-0.000277936 -8.3425e-05 0.0131307)
(0.000256201 -0.000130104 0.013093)
(0.00023244 -0.000160527 0.0131383)
(0.000183782 -0.000183782 0.0130767)
(0.000117328 -0.000198925 0.0130097)
(4.0256e-05 -0.000206421 0.0129715)
(-4.0256e-05 -0.000206421 0.0129715)
(-0.000117328 -0.000198925 0.0130097)
(-0.000183782 -0.000183782 0.0130767)
(-0.00023244 -0.000160527 0.0131383)
(-0.000256201 -0.000130104 0.013093)
(0.00022484 -0.000162382 0.0129683)
(0.00020266 -0.00020266 0.0131294)
(0.000160527 -0.00023244 0.0131383)
(0.000102691 -0.000251977 0.0131073)
(3.52471e-05 -0.000261743 0.0130836)
(-3.52471e-05 -0.000261743 0.0130836)
(-0.000102691 -0.000251977 0.0131073)
(-0.000160527 -0.00023244 0.0131383)
(-0.00020266 -0.00020266 0.0131294)
(-0.00022484 -0.000162382 0.0129683)
(0.000181863 -0.000181863 0.0126645)
(0.000162382 -0.00022484 0.0129683)
(0.000130104 -0.000256201 0.013093)
(8.3425e-05 -0.000277936 0.0131307)
(2.86366e-05 -0.000288932 0.0131379)
(-2.86366e-05 -0.000288932 0.0131379)
(-8.3425e-05 -0.000277936 0.0131307)
(-0.000130104 -0.000256201 0.013093)
(-0.000162382 -0.00022484 0.0129683)
(-0.000181863 -0.000181863 0.0126645)
(7.22007e-05 7.22007e-05 0.0125973)
(6.6561e-05 9.22188e-05 0.0129538)
(5.55343e-05 0.000107933 0.0131237)
(3.63766e-05 0.000119388 0.0131937)
(1.26251e-05 0.000125254 0.0132175)
(-1.26251e-05 0.000125254 0.0132175)
(-3.63766e-05 0.000119388 0.0131937)
(-5.55343e-05 0.000107933 0.0131237)
(-6.6561e-05 9.22188e-05 0.0129538)
(-7.22007e-05 7.22007e-05 0.0125973)
(9.22188e-05 6.65611e-05 0.0129538)
(8.75839e-05 8.75839e-05 0.0131869)
(7.21801e-05 0.000103983 0.0132539)
(4.72404e-05 0.000115215 0.0132629)
(1.63907e-05 0.000120924 0.0132594)
(-1.63906e-05 0.000120924 0.0132594)
(-4.72404e-05 0.000115215 0.0132629)
(-7.21801e-05 0.000103983 0.0132539)
(-8.75839e-05 8.75839e-05 0.0131869)
(-9.22188e-05 6.65611e-05 0.0129538)
(0.000107933 5.55343e-05 0.0131237)
(0.000103983 7.21801e-05 0.0132539)
(8.55756e-05 8.55756e-05 0.0132583)
(5.59256e-05 9.46515e-05 0.0132355)
(1.93974e-05 9.92291e-05 0.0132193)
(-1.93974e-05 9.92291e-05 0.0132193)
(-5.59256e-05 9.46515e-05 0.0132355)
(-8.55756e-05 8.55756e-05 0.0132583)
(-0.000103983 7.21801e-05 0.0132539)
(-0.000107933 5.55343e-05 0.0131237)
(0.000119388 3.63766e-05 0.0131937)
(0.000115215 4.72404e-05 0.0132629)
(9.46515e-05 5.59256e-05 0.0132355)
(6.1769e-05 6.1769e-05 0.0131987)
(2.14138e-05 6.46971e-05 0.0131773)
(-2.14138e-05 6.46971e-05 0.0131773)
(-6.17689e-05 6.1769e-05 0.0131987)
(-9.46515e-05 5.59256e-05 0.0132355)
(-0.000115215 4.72404e-05 0.0132629)
(-0.000119388 3.63766e-05 0.0131937)
(0.000125254 1.26251e-05 0.0132175)
(0.000120924 1.63907e-05 0.0132594)
(9.92291e-05 1.93974e-05 0.0132193)
(6.46971e-05 2.14138e-05 0.0131773)
(2.24208e-05 2.24208e-05 0.013154)
(-2.24208e-05 2.24208e-05 0.013154)
(-6.46971e-05 2.14138e-05 0.0131773)
(-9.92291e-05 1.93974e-05 0.0132193)
(-0.000120924 1.63906e-05 0.0132594)
(-0.000125254 1.26251e-05 0.0132175)
(0.000125254 -1.26251e-05 0.0132175)
(0.000120924 -1.63906e-05 0.0132594)
(9.92291e-05 -1.93974e-05 0.0132193)
(6.46971e-05 -2.14138e-05 0.0131773)
(2.24208e-05 -2.24208e-05 0.013154)
(-2.24208e-05 -2.24208e-05 0.013154)
(-6.46971e-05 -2.14138e-05 0.0131773)
(-9.92291e-05 -1.93974e-05 0.0132193)
(-0.000120924 -1.63906e-05 0.0132594)
(-0.000125254 -1.26251e-05 0.0132175)
(0.000119388 -3.63766e-05 0.0131937)
(0.000115215 -4.72404e-05 0.0132629)
(9.46515e-05 -5.59256e-05 0.0132355)
(6.1769e-05 -6.17689e-05 0.0131987)
(2.14138e-05 -6.46971e-05 0.0131773)
(-2.14138e-05 -6.46971e-05 0.0131773)
(-6.17689e-05 -6.17689e-05 0.0131987)
(-9.46515e-05 -5.59256e-05 0.0132355)
(-0.000115215 -4.72404e-05 0.0132629)
(-0.000119388 -3.63766e-05 0.0131937)
(0.000107933 -5.55343e-05 0.0131237)
(0.000103983 -7.21801e-05 0.0132539)
(8.55756e-05 -8.55756e-05 0.0132583)
(5.59256e-05 -9.46515e-05 0.0132355)
(1.93974e-05 -9.92291e-05 0.0132193)
(-1.93974e-05 -9.92291e-05 0.0132193)
(-5.59256e-05 -9.46515e-05 0.0132355)
(-8.55756e-05 -8.55756e-05 0.0132583)
(-0.000103983 -7.218e-05 0.0132539)
(-0.000107933 -5.55343e-05 0.0131237)
(9.22188e-05 -6.6561e-05 0.0129538)
(8.75839e-05 -8.75839e-05 0.0131869)
(7.21801e-05 -0.000103983 0.0132539)
(4.72404e-05 -0.000115215 0.0132629)
(1.63906e-05 -0.000120924 0.0132594)
(-1.63906e-05 -0.000120924 0.0132594)
(-4.72404e-05 -0.000115215 0.0132629)
(-7.218e-05 -0.000103983 0.0132539)
(-8.75838e-05 -8.75838e-05 0.0131869)
(-9.22188e-05 -6.6561e-05 0.0129538)
(7.22007e-05 -7.22007e-05 0.0125973)
(6.6561e-05 -9.22188e-05 0.0129538)
(5.55343e-05 -0.000107933 0.0131237)
(3.63766e-05 -0.000119388 0.0131937)
(1.26251e-05 -0.000125254 0.0132175)
(-1.26251e-05 -0.000125254 0.0132175)
(-3.63766e-05 -0.000119388 0.0131937)
(-5.55343e-05 -0.000107933 0.0131237)
(-6.6561e-05 -9.22188e-05 0.0129538)
(-7.22007e-05 -7.22007e-05 0.0125973)
(2.33899e-05 2.33899e-05 0.012553)
(2.30699e-05 3.23574e-05 0.0129231)
(2.0509e-05 3.96982e-05 0.0131081)
(1.38698e-05 4.52748e-05 0.0131905)
(4.89286e-06 4.81578e-05 0.0132211)
(-4.89286e-06 4.81578e-05 0.0132211)
(-1.38698e-05 4.52748e-05 0.0131905)
(-2.0509e-05 3.96982e-05 0.0131081)
(-2.30699e-05 3.23574e-05 0.0129231)
(-2.33899e-05 2.33899e-05 0.012553)
(3.23574e-05 2.30699e-05 0.0129231)
(3.31458e-05 3.31458e-05 0.0131826)
(2.88096e-05 4.13706e-05 0.0132745)
(1.94271e-05 4.72161e-05 0.0133022)
(6.83548e-06 5.02295e-05 0.0133086)
(-6.83547e-06 5.02295e-05 0.0133086)
(-1.94271e-05 4.72161e-05 0.0133022)
(-2.88096e-05 4.13706e-05 0.0132745)
(-3.31458e-05 3.31458e-05 0.0131826)
(-3.23574e-05 2.30699e-05 0.0129231)
(3.96982e-05 2.0509e-05 0.0131081)
(4.13706e-05 2.88096e-05 0.0132745)
(3.57846e-05 3.57846e-05 0.0133109)
(2.40561e-05 4.06656e-05 0.0133112)
(8.45248e-06 4.31648e-05 0.0133068)
(-8.45247e-06 4.31648e-05 0.0133068)
(-2.40561e-05 4.06656e-05 0.0133112)
(-3.57846e-05 3.57846e-05 0.0133109)
(-4.13706e-05 2.88096e-05 0.0132745)
(-3.96982e-05 2.0509e-05 0.0131081)
(4.52748e-05 1.38698e-05 0.0131905)
(4.72161e-05 1.94271e-05 0.0133022)
(4.06656e-05 2.40561e-05 0.0133112)
(2.72623e-05 2.72623e-05 0.0132998)
(9.56827e-06 2.8893e-05 0.0132913)
(-9.56827e-06 2.8893e-05 0.0132913)
(-2.72623e-05 2.72623e-05 0.0132998)
(-4.06656e-05 2.40561e-05 0.0133112)
(-4.72161e-05 1.94271e-05 0.0133022)
(-4.52748e-05 1.38698e-05 0.0131905)
(4.81578e-05 4.89286e-06 0.0132211)
(5.02295e-05 6.83548e-06 0.0133086)
(4.31648e-05 8.45248e-06 0.0133068)
(2.8893e-05 9.56827e-06 0.0132913)
(1.01339e-05 1.01339e-05 0.0132814)
(-1.01339e-05 1.01339e-05 0.0132814)
(-2.8893e-05 9.56828e-06 0.0132913)
(-4.31648e-05 8.45248e-06 0.0133068)
(-5.02295e-05 6.83547e-06 0.0133086)
(-4.81578e-05 4.89285e-06 0.0132211)
(4.81578e-05 -4.89286e-06 0.0132211)
(5.02295e-05 -6.83547e-06 0.0133086)
(4.31648e-05 -8.45247e-06 0.0133068)
(2.8893e-05 -9.56827e-06 0.0132913)
(1.01339e-05 -1.01339e-05 0.0132814)
(-1.01339e-05 -1.01339e-05 0.0132814)
(-2.8893e-05 -9.56826e-06 0.0132913)
(-4.31648e-05 -8.45247e-06 0.0133068)
(-5.02295e-05 -6.83548e-06 0.0133086)
(-4.81578e-05 -4.89285e-06 0.0132211)
(4.52748e-05 -1.38698e-05 0.0131905)
(4.72161e-05 -1.94271e-05 0.0133022)
(4.06656e-05 -2.40561e-05 0.0133112)
(2.72623e-05 -2.72623e-05 0.0132998)
(9.56828e-06 -2.8893e-05 0.0132913)
(-9.56826e-06 -2.8893e-05 0.0132913)
(-2.72623e-05 -2.72623e-05 0.0132998)
(-4.06656e-05 -2.40561e-05 0.0133112)
(-4.72161e-05 -1.94271e-05 0.0133022)
(-4.52748e-05 -1.38698e-05 0.0131905)
(3.96982e-05 -2.0509e-05 0.0131081)
(4.13706e-05 -2.88096e-05 0.0132745)
(3.57846e-05 -3.57846e-05 0.0133109)
(2.40561e-05 -4.06656e-05 0.0133112)
(8.45248e-06 -4.31648e-05 0.0133068)
(-8.45247e-06 -4.31648e-05 0.0133068)
(-2.40561e-05 -4.06656e-05 0.0133112)
(-3.57846e-05 -3.57846e-05 0.0133109)
(-4.13706e-05 -2.88095e-05 0.0132745)
(-3.96982e-05 -2.0509e-05 0.0131081)
(3.23574e-05 -2.30699e-05 0.0129231)
(3.31458e-05 -3.31458e-05 0.0131826)
(2.88096e-05 -4.13706e-05 0.0132745)
(1.94271e-05 -4.72161e-05 0.0133022)
(6.83547e-06 -5.02295e-05 0.0133086)
(-6.83548e-06 -5.02295e-05 0.0133086)
(-1.94271e-05 -4.72161e-05 0.0133022)
(-2.88095e-05 -4.13706e-05 0.0132745)
(-3.31458e-05 -3.31458e-05 0.0131826)
(-3.23574e-05 -2.30699e-05 0.0129231)
(2.33899e-05 -2.33899e-05 0.012553)
(2.30699e-05 -3.23574e-05 0.0129231)
(2.0509e-05 -3.96982e-05 0.0131081)
(1.38698e-05 -4.52748e-05 0.0131905)
(4.89285e-06 -4.81578e-05 0.0132211)
(-4.89285e-06 -4.81578e-05 0.0132211)
(-1.38698e-05 -4.52748e-05 0.0131905)
(-2.0509e-05 -3.96982e-05 0.0131081)
(-2.30699e-05 -3.23574e-05 0.0129231)
(-2.33899e-05 -2.33899e-05 0.012553)
(6.02601e-06 6.02601e-06 0.0125358)
(6.50387e-06 9.37067e-06 0.0129093)
(6.26544e-06 1.22353e-05 0.0130994)
(4.38969e-06 1.4532e-05 0.0131863)
(1.58038e-06 1.57292e-05 0.0132195)
(-1.58038e-06 1.57292e-05 0.0132195)
(-4.38969e-06 1.4532e-05 0.0131863)
(-6.26544e-06 1.22353e-05 0.0130994)
(-6.50387e-06 9.37068e-06 0.0129093)
(-6.02601e-06 6.026e-06 0.0125358)
(9.37067e-06 6.50387e-06 0.0129093)
(1.05372e-05 1.05372e-05 0.0131779)
(9.74737e-06 1.40159e-05 0.0132796)
(6.79173e-06 1.66038e-05 0.0133151)
(2.4278e-06 1.79611e-05 0.0133258)
(-2.42779e-06 1.79611e-05 0.0133258)
(-6.79172e-06 1.66038e-05 0.0133151)
(-9.74737e-06 1.40159e-05 0.0132796)
(-1.05372e-05 1.05372e-05 0.0131779)
(-9.37067e-06 6.50387e-06 0.0129093)
(1.22353e-05 6.26544e-06 0.0130994)
(1.40159e-05 9.74737e-06 0.0132796)
(1.28361e-05 1.28361e-05 0.0133296)
(8.90123e-06 1.5088e-05 0.0133401)
(3.1727e-06 1.6263e-05 0.0133411)
(-3.17268e-06 1.6263e-05 0.0133411)
(-8.90122e-06 1.5088e-05 0.0133401)
(-1.28361e-05 1.28361e-05 0.0133296)
(-1.40159e-05 9.74738e-06 0.0132796)
(-1.22353e-05 6.26544e-06 0.0130994)
(1.4532e-05 4.38969e-06 0.0131863)
(1.66038e-05 6.79173e-06 0.0133151)
(1.5088e-05 8.90123e-06 0.0133401)
(1.04201e-05 1.04201e-05 0.0133403)
(3.70716e-06 1.1208e-05 0.0133378)
(-3.70715e-06 1.1208e-05 0.0133378)
(-1.04201e-05 1.04201e-05 0.0133403)
(-1.50879e-05 8.90123e-06 0.0133401)
(-1.66038e-05 6.79173e-06 0.0133151)
(-1.4532e-05 4.38969e-06 0.0131863)
(1.57292e-05 1.58038e-06 0.0132195)
(1.79611e-05 2.4278e-06 0.0133258)
(1.6263e-05 3.1727e-06 0.0133411)
(1.1208e-05 3.70716e-06 0.0133378)
(3.98373e-06 3.98374e-06 0.0133342)
(-3.98373e-06 3.98374e-06 0.0133342)
(-1.1208e-05 3.70716e-06 0.0133378)
(-1.6263e-05 3.17269e-06 0.0133411)
(-1.79611e-05 2.42779e-06 0.0133258)
(-1.57292e-05 1.58038e-06 0.0132195)
(1.57292e-05 -1.58038e-06 0.0132195)
(1.79611e-05 -2.42779e-06 0.0133258)
(1.6263e-05 -3.17268e-06 0.0133411)
(1.1208e-05 -3.70715e-06 0.0133378)
(3.98373e-06 -3.98373e-06 0.0133342)
(-3.98373e-06 -3.98373e-06 0.0133342)
(-1.1208e-05 -3.70715e-06 0.0133378)
(-1.6263e-05 -3.17269e-06 0.0133411)
(-1.79611e-05 -2.42779e-06 0.0133258)
(-1.57292e-05 -1.58038e-06 0.0132195)
(1.4532e-05 -4.38969e-06 0.0131863)
(1.66038e-05 -6.79173e-06 0.0133151)
(1.5088e-05 -8.90122e-06 0.0133401)
(1.04201e-05 -1.04201e-05 0.0133403)
(3.70716e-06 -1.1208e-05 0.0133378)
(-3.70715e-06 -1.1208e-05 0.0133378)
(-1.04201e-05 -1.04201e-05 0.0133403)
(-1.50879e-05 -8.90122e-06 0.0133401)
(-1.66038e-05 -6.79172e-06 0.0133151)
(-1.4532e-05 -4.38968e-06 0.0131863)
(1.22353e-05 -6.26544e-06 0.0130994)
(1.40159e-05 -9.74737e-06 0.0132796)
(1.28361e-05 -1.28361e-05 0.0133296)
(8.90122e-06 -1.50879e-05 0.0133401)
(3.17269e-06 -1.6263e-05 0.0133411)
(-3.17268e-06 -1.6263e-05 0.0133411)
(-8.90122e-06 -1.50879e-05 0.0133401)
(-1.28361e-05 -1.28361e-05 0.0133296)
(-1.40159e-05 -9.74736e-06 0.0132796)
(-1.22353e-05 -6.26543e-06 0.0130994)
(9.37067e-06 -6.50387e-06 0.0129093)
(1.05372e-05 -1.05372e-05 0.0131779)
(9.74738e-06 -1.40159e-05 0.0132796)
(6.79173e-06 -1.66038e-05 0.0133151)
(2.42779e-06 -1.79611e-05 0.0133258)
(-2.42779e-06 -1.79611e-05 0.0133258)
(-6.79172e-06 -1.66038e-05 0.0133151)
(-9.74736e-06 -1.40159e-05 0.0132796)
(-1.05372e-05 -1.05372e-05 0.0131779)
(-9.37067e-06 -6.50386e-06 0.0129093)
(6.02601e-06 -6.02601e-06 0.0125358)
(6.50387e-06 -9.37067e-06 0.0129093)
(6.26544e-06 -1.22353e-05 0.0130994)
(4.38969e-06 -1.4532e-05 0.0131863)
(1.58038e-06 -1.57292e-05 0.0132195)
(-1.58038e-06 -1.57292e-05 0.0132195)
(-4.38969e-06 -1.4532e-05 0.0131863)
(-6.26543e-06 -1.22353e-05 0.0130994)
(-6.50386e-06 -9.37067e-06 0.0129093)
(-6.02601e-06 -6.02601e-06 0.0125358)
(1.30774e-06 1.30774e-06 0.0125289)
(1.60155e-06 2.38234e-06 0.012903)
(1.71178e-06 3.33522e-06 0.0130945)
(1.24618e-06 4.14466e-06 0.013183)
(4.60154e-07 4.56747e-06 0.0132171)
(-4.60153e-07 4.56747e-06 0.0132171)
(-1.24618e-06 4.14465e-06 0.013183)
(-1.71178e-06 3.33521e-06 0.0130945)
(-1.60154e-06 2.38233e-06 0.012903)
(-1.30774e-06 1.30774e-06 0.0125289)
(2.38234e-06 1.60155e-06 0.012903)
(2.9941e-06 2.9941e-06 0.0131744)
(2.96073e-06 4.24872e-06 0.0132796)
(2.12974e-06 5.22136e-06 0.0133182)
(7.73909e-07 5.73859e-06 0.0133306)
(-7.73908e-07 5.73859e-06 0.0133306)
(-2.12974e-06 5.22135e-06 0.0133182)
(-2.96073e-06 4.24872e-06 0.0132796)
(-2.9941e-06 2.9941e-06 0.0131744)
(-2.38233e-06 1.60154e-06 0.012903)
(3.33522e-06 1.71178e-06 0.0130945)
(4.24872e-06 2.96073e-06 0.0132796)
(4.12223e-06 4.12223e-06 0.0133349)
(2.94453e-06 5.00255e-06 0.0133496)
(1.06431e-06 5.46953e-06 0.0133529)
(-1.06431e-06 5.46953e-06 0.0133529)
(-2.94453e-06 5.00255e-06 0.0133496)
(-4.12223e-06 4.12223e-06 0.0133349)
(-4.24872e-06 2.96073e-06 0.0132796)
(-3.33521e-06 1.71178e-06 0.0130945)
(4.14466e-06 1.24618e-06 0.013183)
(5.22136e-06 2.12974e-06 0.0133182)
(5.00255e-06 2.94453e-06 0.0133496)
(3.55392e-06 3.55392e-06 0.0133548)
(1.28097e-06 3.8758e-06 0.013355)
(-1.28097e-06 3.8758e-06 0.013355)
(-3.55392e-06 3.55392e-06 0.0133548)
(-5.00255e-06 2.94453e-06 0.0133496)
(-5.22135e-06 2.12974e-06 0.0133182)
(-4.14465e-06 1.24618e-06 0.013183)
(4.56747e-06 4.60155e-07 0.0132171)
(5.73859e-06 7.7391e-07 0.0133306)
(5.46953e-06 1.06431e-06 0.0133529)
(3.8758e-06 1.28097e-06 0.013355)
(1.39529e-06 1.39529e-06 0.0133542)
(-1.39529e-06 1.39529e-06 0.0133542)
(-3.8758e-06 1.28097e-06 0.013355)
(-5.46952e-06 1.06431e-06 0.0133529)
(-5.73859e-06 7.7391e-07 0.0133306)
(-4.56747e-06 4.60154e-07 0.0132171)
(4.56747e-06 -4.60153e-07 0.0132171)
(5.73859e-06 -7.73907e-07 0.0133306)
(5.46953e-06 -1.06431e-06 0.0133529)
(3.8758e-06 -1.28097e-06 0.013355)
(1.39529e-06 -1.39529e-06 0.0133542)
(-1.39529e-06 -1.39529e-06 0.0133542)
(-3.8758e-06 -1.28097e-06 0.013355)
(-5.46952e-06 -1.06431e-06 0.0133529)
(-5.73859e-06 -7.73907e-07 0.0133306)
(-4.56747e-06 -4.60155e-07 0.0132171)
(4.14465e-06 -1.24618e-06 0.013183)
(5.22135e-06 -2.12973e-06 0.0133182)
(5.00255e-06 -2.94453e-06 0.0133496)
(3.55392e-06 -3.55392e-06 0.0133548)
(1.28097e-06 -3.8758e-06 0.013355)
(-1.28097e-06 -3.8758e-06 0.013355)
(-3.55391e-06 -3.55391e-06 0.0133548)
(-5.00254e-06 -2.94452e-06 0.0133496)
(-5.22135e-06 -2.12973e-06 0.0133182)
(-4.14465e-06 -1.24618e-06 0.013183)
(3.33521e-06 -1.71178e-06 0.0130945)
(4.24872e-06 -2.96073e-06 0.0132796)
(4.12223e-06 -4.12223e-06 0.0133349)
(2.94453e-06 -5.00255e-06 0.0133496)
(1.06431e-06 -5.46952e-06 0.0133529)
(-1.06431e-06 -5.46952e-06 0.0133529)
(-2.94452e-06 -5.00254e-06 0.0133496)
(-4.12223e-06 -4.12223e-06 0.0133349)
(-4.24872e-06 -2.96073e-06 0.0132796)
(-3.33521e-06 -1.71178e-06 0.0130945)
(2.38233e-06 -1.60154e-06 0.012903)
(2.9941e-06 -2.9941e-06 0.0131744)
(2.96073e-06 -4.24872e-06 0.0132796)
(2.12974e-06 -5.22135e-06 0.0133182)
(7.7391e-07 -5.73859e-06 0.0133306)
(-7.73907e-07 -5.73859e-06 0.0133306)
(-2.12973e-06 -5.22135e-06 0.0133182)
(-2.96073e-06 -4.24872e-06 0.0132796)
(-2.99409e-06 -2.99409e-06 0.0131744)
(-2.38233e-06 -1.60154e-06 0.012903)
(1.30774e-06 -1.30774e-06 0.0125289)
(1.60154e-06 -2.38233e-06 0.012903)
(1.71178e-06 -3.33521e-06 0.0130945)
(1.24618e-06 -4.14465e-06 0.013183)