/*--------------------------------*- C++ -*----------------------------------*\
| =========                 |                                                 |
| \\      /  F ield         | OpenFOAM: The Open Source CFD Toolbox           |
|  \\    /   O peration     | Version:  2412                                  |
|   \\  /    A nd           | Website:  www.openfoam.com                      |
|    \\/     M anipulation  |                                                 |
\*---------------------------------------------------------------------------*/
FoamFile
{
    version     2.0;
    format      ascii;
    arch        "LSB;label=32;scalar=64";
    class       volVectorField;
    location    "6.9";
    object      U;
}
// * * * * * * * * * * * * * * * * * * * * * * * * * * * * * * * * * * * * * //

dimensions      [0 1 -1 0 0 0 0];

internalField   nonuniform List<vector> 
15000
(
(0.00121876 0.00121876 0.0104069)
(0.000902366 0.00114324 0.0103642)
(0.000616105 0.00111802 0.0103271)
(0.000362088 0.00109249 0.010302)
(0.000118988 0.00108067 0.0102901)
(-0.000118988 0.00108067 0.0102901)
(-0.000362088 0.00109249 0.010302)
(-0.000616105 0.00111802 0.0103271)
(-0.000902366 0.00114324 0.0103642)
(-0.00121876 0.00121876 0.0104069)
(0.00114324 0.000902366 0.0103642)
(0.000852604 0.000852604 0.0103062)
(0.000584245 0.0008161 0.0102664)
(0.000340905 0.000789751 0.0102436)
(0.000111864 0.000776841 0.0102334)
(-0.000111864 0.000776841 0.0102334)
(-0.000340905 0.000789751 0.0102436)
(-0.000584245 0.0008161 0.0102664)
(-0.000852604 0.000852604 0.0103062)
(-0.00114324 0.000902366 0.0103642)
(0.00111802 0.000616105 0.0103271)
(0.0008161 0.000584245 0.0102664)
(0.000554619 0.000554619 0.0102307)
(0.00032156 0.000532805 0.0102112)
(0.000105245 0.000521739 0.0102025)
(-0.000105245 0.000521739 0.0102025)
(-0.00032156 0.000532805 0.0102112)
(-0.000554619 0.000554619 0.0102307)
(-0.0008161 0.000584245 0.0102664)
(-0.00111802 0.000616105 0.0103271)
(0.00109249 0.000362088 0.010302)
(0.000789751 0.000340905 0.0102436)
(0.000532805 0.00032156 0.0102112)
(0.000307309 0.000307309 0.0101935)
(0.000100348 0.000300007 0.0101853)
(-0.000100348 0.000300007 0.0101853)
(-0.000307309 0.000307309 0.0101935)
(-0.000532805 0.00032156 0.0102112)
(-0.000789751 0.000340905 0.0102436)
(-0.00109249 0.000362088 0.010302)
(0.00108067 0.000118988 0.0102901)
(0.000776841 0.000111864 0.0102334)
(0.000521739 0.000105245 0.0102025)
(0.000300007 0.000100348 0.0101853)
(9.78296e-05 9.78296e-05 0.0101772)
(-9.78296e-05 9.78296e-05 0.0101772)
(-0.000300007 0.000100348 0.0101853)
(-0.000521739 0.000105245 0.0102025)
(-0.000776841 0.000111864 0.0102334)
(-0.00108067 0.000118988 0.0102901)
(0.00108067 -0.000118988 0.0102901)
(0.000776841 -0.000111864 0.0102334)
(0.000521739 -0.000105245 0.0102025)
(0.000300007 -0.000100348 0.0101853)
(9.78296e-05 -9.78296e-05 0.0101772)
(-9.78296e-05 -9.78296e-05 0.0101772)
(-0.000300007 -0.000100348 0.0101853)
(-0.000521739 -0.000105245 0.0102025)
(-0.000776841 -0.000111864 0.0102334)
(-0.00108067 -0.000118988 0.0102901)
(0.00109249 -0.000362088 0.010302)
(0.000789751 -0.000340905 0.0102436)
(0.000532805 -0.00032156 0.0102112)
(0.000307309 -0.000307309 0.0101935)
(0.000100348 -0.000300007 0.0101853)
(-0.000100348 -0.000300007 0.0101853)
(-0.000307309 -0.000307309 0.0101935)
(-0.000532805 -0.00032156 0.0102112)
(-0.000789751 -0.000340905 0.0102436)
(-0.00109249 -0.000362088 0.010302)
(0.00111802 -0.000616105 0.0103271)
(0.0008161 -0.000584245 0.0102664)
(0.000554619 -0.000554619 0.0102307)
(0.00032156 -0.000532805 0.0102112)
(0.000105245 -0.000521739 0.0102025)
(-0.000105245 -0.000521739 0.0102025)
(-0.00032156 -0.000532805 0.0102112)
(-0.000554619 -0.000554619 0.0102307)
(-0.0008161 -0.000584245 0.0102664)
(-0.00111802 -0.000616105 0.0103271)
(0.00114324 -0.000902366 0.0103642)
(0.000852604 -0.000852604 0.0103062)
(0.000584245 -0.0008161 0.0102664)
(0.000340905 -0.000789751 0.0102436)
(0.000111864 -0.000776841 0.0102334)
(-0.000111864 -0.000776841 0.0102334)
(-0.000340905 -0.000789751 0.0102436)
(-0.000584245 -0.0008161 0.0102664)
(-0.000852604 -0.000852604 0.0103062)
(-0.00114324 -0.000902366 0.0103642)
(0.00121876 -0.00121876 0.0104069)
(0.000902366 -0.00114324 0.0103642)
(0.000616105 -0.00111802 0.0103271)
(0.000362088 -0.00109249 0.010302)
(0.000118988 -0.00108067 0.0102901)
(-0.000118988 -0.00108067 0.0102901)
(-0.000362088 -0.00109249 0.010302)
(-0.000616105 -0.00111802 0.0103271)
(-0.000902366 -0.00114324 0.0103642)
(-0.00121876 -0.00121876 0.0104069)
(0.000796233 0.000796233 0.0126592)
(0.000630961 0.000842947 0.0126403)
(0.000449846 0.00087077 0.0125561)
(0.000269255 0.000881977 0.0124715)
(8.91814e-05 0.000887067 0.0124229)
(-8.91814e-05 0.000887067 0.0124229)
(-0.000269255 0.000881977 0.0124715)
(-0.000449846 0.00087077 0.0125561)
(-0.000630961 0.000842947 0.0126403)
(-0.000796233 0.000796233 0.0126592)
(0.000842947 0.000630961 0.0126403)
(0.000655431 0.000655431 0.0124911)
(0.000460321 0.000663117 0.0123139)
(0.000271898 0.000662629 0.012177)
(8.96967e-05 0.000661657 0.0121052)
(-8.96967e-05 0.000661657 0.0121052)
(-0.000271898 0.000662629 0.012177)
(-0.000460321 0.000663117 0.0123139)
(-0.000655431 0.000655431 0.0124911)
(-0.000842947 0.000630961 0.0126403)
(0.00087077 0.000449846 0.0125561)
(0.000663117 0.000460321 0.0123139)
(0.000459812 0.000459812 0.0120854)
(0.000269332 0.000455978 0.0119235)
(8.85849e-05 0.000453517 0.0118416)
(-8.85849e-05 0.000453517 0.0118416)
(-0.000269332 0.000455978 0.0119235)
(-0.000459812 0.000459812 0.0120854)
(-0.000663117 0.000460321 0.0123139)
(-0.00087077 0.000449846 0.0125561)
(0.000881977 0.000269255 0.0124715)
(0.000662629 0.000271898 0.012177)
(0.000455978 0.000269332 0.0119235)
(0.000265943 0.000265943 0.0117512)
(8.73342e-05 0.00026398 0.0116656)
(-8.73342e-05 0.00026398 0.0116656)
(-0.000265943 0.000265943 0.0117512)
(-0.000455978 0.000269332 0.0119235)
(-0.000662629 0.000271898 0.012177)
(-0.000881977 0.000269255 0.0124715)
(0.000887067 8.91814e-05 0.0124229)
(0.000661657 8.96967e-05 0.0121052)
(0.000453517 8.85849e-05 0.0118416)
(0.00026398 8.73342e-05 0.0116656)
(8.66276e-05 8.66276e-05 0.0115789)
(-8.66276e-05 8.66276e-05 0.0115789)
(-0.00026398 8.73342e-05 0.0116656)
(-0.000453517 8.85849e-05 0.0118416)
(-0.000661657 8.96967e-05 0.0121052)
(-0.000887067 8.91814e-05 0.0124229)
(0.000887067 -8.91814e-05 0.0124229)
(0.000661657 -8.96967e-05 0.0121052)
(0.000453517 -8.85849e-05 0.0118416)
(0.00026398 -8.73342e-05 0.0116656)
(8.66276e-05 -8.66276e-05 0.0115789)
(-8.66276e-05 -8.66276e-05 0.0115789)
(-0.00026398 -8.73342e-05 0.0116656)
(-0.000453517 -8.85849e-05 0.0118416)
(-0.000661657 -8.96967e-05 0.0121052)
(-0.000887067 -8.91814e-05 0.0124229)
(0.000881977 -0.000269255 0.0124715)
(0.000662629 -0.000271898 0.012177)
(0.000455978 -0.000269332 0.0119235)
(0.000265943 -0.000265943 0.0117512)
(8.73342e-05 -0.00026398 0.0116656)
(-8.73342e-05 -0.00026398 0.0116656)
(-0.000265943 -0.000265943 0.0117512)
(-0.000455978 -0.000269332 0.0119235)
(-0.000662629 -0.000271898 0.012177)
(-0.000881977 -0.000269255 0.0124715)
(0.00087077 -0.000449846 0.0125561)
(0.000663117 -0.000460321 0.0123139)
(0.000459812 -0.000459812 0.0120854)
(0.000269332 -0.000455978 0.0119235)
(8.85849e-05 -0.000453517 0.0118416)
(-8.85849e-05 -0.000453517 0.0118416)
(-0.000269332 -0.000455978 0.0119235)
(-0.000459812 -0.000459812 0.0120854)
(-0.000663117 -0.000460321 0.0123139)
(-0.00087077 -0.000449846 0.0125561)
(0.000842947 -0.000630961 0.0126403)
(0.000655431 -0.000655431 0.0124911)
(0.000460321 -0.000663117 0.0123139)
(0.000271898 -0.000662629 0.012177)
(8.96967e-05 -0.000661657 0.0121052)
(-8.96967e-05 -0.000661657 0.0121052)
(-0.000271898 -0.000662629 0.012177)
(-0.000460321 -0.000663117 0.0123139)
(-0.000655431 -0.000655431 0.0124911)
(-0.000842947 -0.000630961 0.0126403)
(0.000796233 -0.000796233 0.0126592)
(0.000630961 -0.000842947 0.0126403)
(0.000449846 -0.00087077 0.0125561)
(0.000269255 -0.000881977 0.0124715)
(8.91814e-05 -0.000887067 0.0124229)
(-8.91814e-05 -0.000887067 0.0124229)
(-0.000269255 -0.000881977 0.0124715)
(-0.000449846 -0.00087077 0.0125561)
(-0.000630961 -0.000842947 0.0126403)
(-0.000796233 -0.000796233 0.0126592)
(0.000572854 0.000572854 0.0125228)
(0.000479737 0.000645839 0.0127994)
(0.000361364 0.000695357 0.0128959)
(0.000223529 0.000724506 0.0129096)
(7.53153e-05 0.00073847 0.012903)
(-7.53153e-05 0.00073847 0.012903)
(-0.000223529 0.000724506 0.0129096)
(-0.000361364 0.000695357 0.0128959)
(-0.000479737 0.000645839 0.0127994)
(-0.000572854 0.000572854 0.0125228)
(0.000645839 0.000479737 0.0127994)
(0.000538378 0.000538378 0.0129102)
(0.000399432 0.000573846 0.0128655)
(0.000244769 0.000592857 0.0127901)
(8.22482e-05 0.000601447 0.0127419)
(-8.22482e-05 0.000601447 0.0127419)
(-0.000244769 0.000592857 0.0127901)
(-0.000399432 0.000573846 0.0128655)
(-0.000538378 0.000538378 0.0129102)
(-0.000645839 0.000479737 0.0127994)
(0.000695357 0.000361364 0.0128959)
(0.000573846 0.000399432 0.0128655)
(0.000421952 0.000421952 0.0127268)
(0.000257004 0.000433667 0.0126001)
(8.61863e-05 0.000438796 0.0125303)
(-8.61863e-05 0.000438796 0.0125303)
(-0.000257004 0.000433667 0.0126001)
(-0.000421952 0.000421952 0.0127268)
(-0.000573846 0.000399432 0.0128655)
(-0.000695357 0.000361364 0.0128959)
(0.000724506 0.000223529 0.0129096)
(0.000592857 0.000244769 0.0127901)
(0.000433667 0.000257004 0.0126001)
(0.000263348 0.000263348 0.0124493)
(8.82252e-05 0.000266096 0.0123705)
(-8.82252e-05 0.000266096 0.0123705)
(-0.000263348 0.000263348 0.0124493)
(-0.000433667 0.000257004 0.0126001)
(-0.000592857 0.000244769 0.0127901)
(-0.000724506 0.000223529 0.0129096)
(0.00073847 7.53153e-05 0.012903)
(0.000601447 8.22482e-05 0.0127419)
(0.000438796 8.61863e-05 0.0125303)
(0.000266096 8.82252e-05 0.0123705)
(8.91028e-05 8.91028e-05 0.0122887)
(-8.91028e-05 8.91028e-05 0.0122887)
(-0.000266096 8.82252e-05 0.0123705)
(-0.000438796 8.61863e-05 0.0125303)
(-0.000601447 8.22482e-05 0.0127419)
(-0.00073847 7.53153e-05 0.012903)
(0.00073847 -7.53153e-05 0.012903)
(0.000601447 -8.22482e-05 0.0127419)
(0.000438796 -8.61863e-05 0.0125303)
(0.000266096 -8.82252e-05 0.0123705)
(8.91028e-05 -8.91028e-05 0.0122887)
(-8.91028e-05 -8.91028e-05 0.0122887)
(-0.000266096 -8.82252e-05 0.0123705)
(-0.000438796 -8.61863e-05 0.0125303)
(-0.000601447 -8.22482e-05 0.0127419)
(-0.00073847 -7.53153e-05 0.012903)
(0.000724506 -0.000223529 0.0129096)
(0.000592857 -0.000244769 0.0127901)
(0.000433667 -0.000257004 0.0126001)
(0.000263348 -0.000263348 0.0124493)
(8.82252e-05 -0.000266096 0.0123705)
(-8.82252e-05 -0.000266096 0.0123705)
(-0.000263348 -0.000263348 0.0124493)
(-0.000433667 -0.000257004 0.0126001)
(-0.000592857 -0.000244769 0.0127901)
(-0.000724506 -0.000223529 0.0129096)
(0.000695357 -0.000361364 0.0128959)
(0.000573846 -0.000399432 0.0128655)
(0.000421952 -0.000421952 0.0127268)
(0.000257004 -0.000433667 0.0126001)
(8.61863e-05 -0.000438796 0.0125303)
(-8.61863e-05 -0.000438796 0.0125303)
(-0.000257004 -0.000433667 0.0126001)
(-0.000421952 -0.000421952 0.0127268)
(-0.000573846 -0.000399432 0.0128655)
(-0.000695357 -0.000361364 0.0128959)
(0.000645839 -0.000479737 0.0127994)
(0.000538378 -0.000538378 0.0129102)
(0.000399432 -0.000573846 0.0128655)
(0.000244769 -0.000592857 0.0127901)
(8.22482e-05 -0.000601447 0.0127419)
(-8.22482e-05 -0.000601447 0.0127419)
(-0.000244769 -0.000592857 0.0127901)
(-0.000399432 -0.000573846 0.0128655)
(-0.000538378 -0.000538378 0.0129102)
(-0.000645839 -0.000479737 0.0127994)
(0.000572854 -0.000572854 0.0125228)
(0.000479737 -0.000645839 0.0127994)
(0.000361364 -0.000695357 0.0128959)
(0.000223529 -0.000724506 0.0129096)
(7.53153e-05 -0.00073847 0.012903)
(-7.53153e-05 -0.00073847 0.012903)
(-0.000223529 -0.000724506 0.0129096)
(-0.000361364 -0.000695357 0.0128959)
(-0.000479737 -0.000645839 0.0127994)
(-0.000572854 -0.000572854 0.0125228)
(0.000258619 0.000258619 0.0127383)
(0.000227389 0.000316073 0.0131535)
(0.000180616 0.000357794 0.0133497)
(0.000115069 0.000385803 0.0134248)
(3.9379e-05 0.000399605 0.013447)
(-3.9379e-05 0.000399605 0.013447)
(-0.000115069 0.000385803 0.0134248)
(-0.000180616 0.000357794 0.0133497)
(-0.000227389 0.000316073 0.0131535)
(-0.000258619 0.000258619 0.0127383)
(0.000316073 0.000227389 0.0131535)
(0.000280052 0.000280052 0.0134181)
(0.000218694 0.000317569 0.0134697)
(0.000138512 0.000341344 0.0134489)
(4.73153e-05 0.000352924 0.013425)
(-4.73153e-05 0.000352924 0.013425)
(-0.000138512 0.000341344 0.0134489)
(-0.000218694 0.000317569 0.0134697)
(-0.000280052 0.000280052 0.0134181)
(-0.000316073 0.000227389 0.0131535)
(0.000357794 0.000180616 0.0133497)
(0.000317569 0.000218694 0.0134697)
(0.000246651 0.000246651 0.0134173)
(0.000155659 0.00026434 0.0133366)
(5.31157e-05 0.000272922 0.0132867)
(-5.31157e-05 0.000272922 0.0132867)
(-0.000155659 0.00026434 0.0133366)
(-0.000246651 0.000246651 0.0134173)
(-0.000317569 0.000218694 0.0134697)
(-0.000357794 0.000180616 0.0133497)
(0.000385803 0.000115069 0.0134248)
(0.000341344 0.000138512 0.0134489)
(0.00026434 0.000155659 0.0133366)
(0.000166532 0.000166532 0.0132258)
(5.6794e-05 0.000171793 0.0131641)
(-5.6794e-05 0.000171793 0.0131641)
(-0.000166532 0.000166532 0.0132258)
(-0.00026434 0.000155659 0.0133366)
(-0.000341344 0.000138512 0.0134489)
(-0.000385803 0.000115069 0.0134248)
(0.000399605 3.9379e-05 0.013447)
(0.000352924 4.73153e-05 0.013425)
(0.000272922 5.31157e-05 0.0132867)
(0.000171793 5.6794e-05 0.0131641)
(5.85692e-05 5.85692e-05 0.0130982)
(-5.85692e-05 5.85692e-05 0.0130982)
(-0.000171793 5.6794e-05 0.0131641)
(-0.000272922 5.31157e-05 0.0132867)
(-0.000352924 4.73153e-05 0.013425)
(-0.000399605 3.9379e-05 0.013447)
(0.000399605 -3.9379e-05 0.013447)
(0.000352924 -4.73153e-05 0.013425)
(0.000272922 -5.31157e-05 0.0132867)
(0.000171793 -5.67939e-05 0.0131641)
(5.85692e-05 -5.85692e-05 0.0130982)
(-5.85692e-05 -5.85692e-05 0.0130982)
(-0.000171793 -5.67939e-05 0.0131641)
(-0.000272922 -5.31157e-05 0.0132867)
(-0.000352924 -4.73153e-05 0.013425)
(-0.000399605 -3.9379e-05 0.013447)
(0.000385803 -0.000115069 0.0134248)
(0.000341344 -0.000138512 0.0134489)
(0.00026434 -0.000155659 0.0133366)
(0.000166532 -0.000166532 0.0132258)
(5.6794e-05 -0.000171793 0.0131641)
(-5.67939e-05 -0.000171793 0.0131641)
(-0.000166532 -0.000166532 0.0132258)
(-0.00026434 -0.000155659 0.0133366)
(-0.000341344 -0.000138512 0.0134489)
(-0.000385803 -0.000115069 0.0134248)
(0.000357794 -0.000180616 0.0133497)
(0.000317569 -0.000218694 0.0134697)
(0.000246651 -0.000246651 0.0134173)
(0.000155659 -0.00026434 0.0133366)
(5.31157e-05 -0.000272922 0.0132867)
(-5.31157e-05 -0.000272922 0.0132867)
(-0.000155659 -0.00026434 0.0133366)
(-0.000246651 -0.000246651 0.0134173)
(-0.000317569 -0.000218694 0.0134697)
(-0.000357794 -0.000180616 0.0133497)
(0.000316073 -0.000227389 0.0131535)
(0.000280052 -0.000280052 0.0134181)
(0.000218694 -0.000317569 0.0134697)
(0.000138512 -0.000341344 0.0134489)
(4.73153e-05 -0.000352924 0.013425)
(-4.73153e-05 -0.000352924 0.013425)
(-0.000138512 -0.000341344 0.0134489)
(-0.000218694 -0.000317569 0.0134697)
(-0.000280052 -0.000280052 0.0134181)
(-0.000316073 -0.000227389 0.0131535)
(0.000258619 -0.000258619 0.0127383)
(0.000227389 -0.000316073 0.0131535)
(0.000180616 -0.000357794 0.0133497)
(0.000115069 -0.000385803 0.0134248)
(3.9379e-05 -0.000399605 0.013447)
(-3.9379e-05 -0.000399605 0.013447)
(-0.000115069 -0.000385803 0.0134248)
(-0.000180616 -0.000357794 0.0133497)
(-0.000227389 -0.000316073 0.0131535)
(-0.000258619 -0.000258619 0.0127383)
(0.000118046 0.000118046 0.0126562)
(0.000106715 0.000148477 0.0131525)
(8.80127e-05 0.000172623 0.0134158)
(5.72649e-05 0.000189809 0.0135374)
(1.98156e-05 0.000198462 0.0135829)
(-1.98156e-05 0.000198462 0.0135829)
(-5.72649e-05 0.000189809 0.0135374)
(-8.80127e-05 0.000172623 0.0134158)
(-0.000106715 0.000148477 0.0131525)
(-0.000118046 0.000118046 0.0126562)
(0.000148477 0.000106715 0.0131525)
(0.000138155 0.000138155 0.013524)
(0.00011229 0.000162398 0.0136564)
(7.28793e-05 0.000178764 0.0136892)
(2.51935e-05 0.000186969 0.0136919)
(-2.51935e-05 0.000186969 0.0136919)
(-7.28793e-05 0.000178764 0.0136892)
(-0.00011229 0.000162398 0.0136564)
(-0.000138155 0.000138155 0.013524)
(-0.000148477 0.000106715 0.0131525)
(0.000172623 8.80127e-05 0.0134158)
(0.000162398 0.00011229 0.0136564)
(0.000131596 0.000131596 0.0136919)
(8.52309e-05 0.000144547 0.013668)
(2.94429e-05 0.000151008 0.0136458)
(-2.94429e-05 0.000151008 0.0136458)
(-8.52309e-05 0.000144547 0.013668)
(-0.000131596 0.000131596 0.0136919)
(-0.000162398 0.00011229 0.0136564)
(-0.000172623 8.80127e-05 0.0134158)
(0.000189809 5.72649e-05 0.0135374)
(0.000178764 7.28793e-05 0.0136892)
(0.000144547 8.52309e-05 0.013668)
(9.34713e-05 9.34713e-05 0.0136151)
(3.22693e-05 9.75585e-05 0.0135814)
(-3.22693e-05 9.75585e-05 0.0135814)
(-9.34713e-05 9.34713e-05 0.0136151)
(-0.000144547 8.52309e-05 0.013668)
(-0.000178764 7.28793e-05 0.0136892)
(-0.000189809 5.72649e-05 0.0135374)
(0.000198462 1.98156e-05 0.0135829)
(0.000186969 2.51935e-05 0.0136919)
(0.000151008 2.94429e-05 0.0136458)
(9.75585e-05 3.22693e-05 0.0135814)
(3.36659e-05 3.36659e-05 0.0135435)
(-3.36659e-05 3.36659e-05 0.0135435)
(-9.75585e-05 3.22693e-05 0.0135814)
(-0.000151008 2.94429e-05 0.0136458)
(-0.000186969 2.51935e-05 0.0136919)
(-0.000198462 1.98156e-05 0.0135829)
(0.000198462 -1.98156e-05 0.0135829)
(0.000186969 -2.51934e-05 0.0136919)
(0.000151008 -2.94429e-05 0.0136458)
(9.75585e-05 -3.22693e-05 0.0135814)
(3.36659e-05 -3.36659e-05 0.0135435)
(-3.36659e-05 -3.36659e-05 0.0135435)
(-9.75585e-05 -3.22693e-05 0.0135814)
(-0.000151008 -2.94429e-05 0.0136458)
(-0.000186969 -2.51935e-05 0.0136919)
(-0.000198462 -1.98156e-05 0.0135829)
(0.000189809 -5.72649e-05 0.0135374)
(0.000178764 -7.28793e-05 0.0136892)
(0.000144547 -8.52309e-05 0.013668)
(9.34713e-05 -9.34713e-05 0.0136151)
(3.22693e-05 -9.75585e-05 0.0135814)
(-3.22693e-05 -9.75585e-05 0.0135814)
(-9.34713e-05 -9.34713e-05 0.0136151)
(-0.000144547 -8.52309e-05 0.013668)
(-0.000178764 -7.28793e-05 0.0136892)
(-0.000189809 -5.72649e-05 0.0135374)
(0.000172623 -8.80127e-05 0.0134158)
(0.000162398 -0.00011229 0.0136564)
(0.000131596 -0.000131596 0.0136919)
(8.52309e-05 -0.000144547 0.013668)
(2.94429e-05 -0.000151008 0.0136458)
(-2.94429e-05 -0.000151008 0.0136458)
(-8.52309e-05 -0.000144547 0.013668)
(-0.000131596 -0.000131596 0.0136919)
(-0.000162398 -0.00011229 0.0136564)
(-0.000172623 -8.80127e-05 0.0134158)
(0.000148477 -0.000106715 0.0131525)
(0.000138155 -0.000138155 0.013524)
(0.00011229 -0.000162398 0.0136564)
(7.28793e-05 -0.000178764 0.0136892)
(2.51935e-05 -0.000186969 0.0136919)
(-2.51935e-05 -0.000186969 0.0136919)
(-7.28793e-05 -0.000178764 0.0136892)
(-0.00011229 -0.000162398 0.0136564)
(-0.000138155 -0.000138155 0.013524)
(-0.000148477 -0.000106715 0.0131525)
(0.000118046 -0.000118046 0.0126562)
(0.000106715 -0.000148477 0.0131525)
(8.80127e-05 -0.000172623 0.0134158)
(5.72649e-05 -0.000189809 0.0135374)
(1.98156e-05 -0.000198462 0.0135829)
(-1.98156e-05 -0.000198462 0.0135829)
(-5.72649e-05 -0.000189809 0.0135374)
(-8.80127e-05 -0.000172623 0.0134158)
(-0.000106715 -0.000148477 0.0131525)
(-0.000118046 -0.000118046 0.0126562)
(4.27706e-05 4.27706e-05 0.0125973)
(4.1022e-05 5.77005e-05 0.013118)
(3.59041e-05 7.03178e-05 0.0134066)
(2.41146e-05 7.97836e-05 0.0135481)
(8.48248e-06 8.46484e-05 0.0136045)
(-8.48248e-06 8.46484e-05 0.0136045)
(-2.41146e-05 7.97836e-05 0.0135481)
(-3.59041e-05 7.03178e-05 0.0134066)
(-4.1022e-05 5.77005e-05 0.013118)
(-4.27706e-05 4.27706e-05 0.0125973)
(5.77005e-05 4.1022e-05 0.013118)
(5.7822e-05 5.7822e-05 0.0135331)
(4.96906e-05 7.1723e-05 0.013705)
(3.33234e-05 8.16216e-05 0.013767)
(1.17009e-05 8.67082e-05 0.013785)
(-1.17009e-05 8.67082e-05 0.013785)
(-3.33234e-05 8.16216e-05 0.013767)
(-4.96906e-05 7.1723e-05 0.013705)
(-5.7822e-05 5.7822e-05 0.0135331)
(-5.77005e-05 4.1022e-05 0.013118)
(7.03178e-05 3.59041e-05 0.0134066)
(7.1723e-05 4.96906e-05 0.013705)
(6.14063e-05 6.14063e-05 0.0137902)
(4.10734e-05 6.96373e-05 0.0138016)
(1.4403e-05 7.38392e-05 0.0137976)
(-1.4403e-05 7.38392e-05 0.0137976)
(-4.10734e-05 6.96373e-05 0.0138016)
(-6.14063e-05 6.14063e-05 0.0137902)
(-7.1723e-05 4.96906e-05 0.013705)
(-7.03178e-05 3.59041e-05 0.0134066)
(7.97836e-05 2.41146e-05 0.0135481)
(8.16216e-05 3.33234e-05 0.013767)
(6.96373e-05 4.10734e-05 0.0138016)
(4.64593e-05 4.64593e-05 0.0137875)
(1.62717e-05 4.91879e-05 0.0137733)
(-1.62717e-05 4.91879e-05 0.0137733)
(-4.64593e-05 4.64593e-05 0.0137875)
(-6.96373e-05 4.10734e-05 0.0138016)
(-8.16215e-05 3.33234e-05 0.013767)
(-7.97836e-05 2.41146e-05 0.0135481)
(8.46484e-05 8.48248e-06 0.0136045)
(8.67082e-05 1.17009e-05 0.013785)
(7.38392e-05 1.4403e-05 0.0137976)
(4.91879e-05 1.62717e-05 0.0137733)
(1.72145e-05 1.72145e-05 0.0137555)
(-1.72145e-05 1.72145e-05 0.0137555)
(-4.91879e-05 1.62717e-05 0.0137733)
(-7.38391e-05 1.4403e-05 0.0137976)
(-8.67081e-05 1.17009e-05 0.013785)
(-8.46484e-05 8.48247e-06 0.0136045)
(8.46484e-05 -8.48248e-06 0.0136045)
(8.67082e-05 -1.17009e-05 0.013785)
(7.38392e-05 -1.4403e-05 0.0137976)
(4.91879e-05 -1.62717e-05 0.0137733)
(1.72145e-05 -1.72145e-05 0.0137555)
(-1.72145e-05 -1.72145e-05 0.0137555)
(-4.91879e-05 -1.62717e-05 0.0137733)
(-7.38392e-05 -1.4403e-05 0.0137976)
(-8.67082e-05 -1.17009e-05 0.013785)
(-8.46484e-05 -8.48248e-06 0.0136045)
(7.97836e-05 -2.41146e-05 0.0135481)
(8.16216e-05 -3.33234e-05 0.013767)
(6.96373e-05 -4.10734e-05 0.0138016)
(4.64593e-05 -4.64593e-05 0.0137875)
(1.62717e-05 -4.91879e-05 0.0137733)
(-1.62717e-05 -4.91879e-05 0.0137733)
(-4.64593e-05 -4.64593e-05 0.0137875)
(-6.96373e-05 -4.10734e-05 0.0138016)
(-8.16215e-05 -3.33234e-05 0.013767)
(-7.97836e-05 -2.41146e-05 0.0135481)
(7.03178e-05 -3.59041e-05 0.0134066)
(7.1723e-05 -4.96906e-05 0.013705)
(6.14063e-05 -6.14063e-05 0.0137902)
(4.10734e-05 -6.96373e-05 0.0138016)
(1.4403e-05 -7.38391e-05 0.0137976)
(-1.4403e-05 -7.38391e-05 0.0137976)
(-4.10734e-05 -6.96373e-05 0.0138016)
(-6.14063e-05 -6.14063e-05 0.0137902)
(-7.1723e-05 -4.96906e-05 0.013705)
(-7.03178e-05 -3.5904e-05 0.0134066)
(5.77005e-05 -4.1022e-05 0.013118)
(5.7822e-05 -5.7822e-05 0.0135331)
(4.96906e-05 -7.1723e-05 0.013705)
(3.33234e-05 -8.16215e-05 0.013767)
(1.17009e-05 -8.67081e-05 0.013785)
(-1.17009e-05 -8.67081e-05 0.013785)
(-3.33234e-05 -8.16215e-05 0.013767)
(-4.96906e-05 -7.1723e-05 0.013705)
(-5.7822e-05 -5.7822e-05 0.0135331)
(-5.77005e-05 -4.1022e-05 0.013118)
(4.27706e-05 -4.27706e-05 0.0125973)
(4.1022e-05 -5.77005e-05 0.013118)
(3.59041e-05 -7.03178e-05 0.0134066)
(2.41146e-05 -7.97836e-05 0.0135481)
(8.48248e-06 -8.46484e-05 0.0136045)
(-8.48247e-06 -8.46484e-05 0.0136045)
(-2.41146e-05 -7.97836e-05 0.0135481)
(-3.5904e-05 -7.03178e-05 0.0134066)
(-4.1022e-05 -5.77005e-05 0.013118)
(-4.27706e-05 -4.27706e-05 0.0125973)
(1.25075e-05 1.25075e-05 0.0125685)
(1.29378e-05 1.84732e-05 0.013096)
(1.2171e-05 2.38714e-05 0.0133937)
(8.46483e-06 2.81554e-05 0.0135435)
(3.03707e-06 3.04015e-05 0.0136046)
(-3.03706e-06 3.04015e-05 0.0136046)
(-8.46482e-06 2.81554e-05 0.0135435)
(-1.2171e-05 2.38714e-05 0.0133937)
(-1.29378e-05 1.84732e-05 0.013096)
(-1.25075e-05 1.25075e-05 0.0125685)
(1.84732e-05 1.29378e-05 0.013096)
(2.02907e-05 2.02907e-05 0.0135277)
(1.86004e-05 2.68333e-05 0.0137173)
(1.29233e-05 3.17486e-05 0.0137937)
(4.61659e-06 3.43349e-05 0.0138195)
(-4.61659e-06 3.43349e-05 0.0138195)
(-1.29233e-05 3.17486e-05 0.0137937)
(-1.86004e-05 2.68333e-05 0.0137173)
(-2.02907e-05 2.02907e-05 0.0135277)
(-1.84732e-05 1.29378e-05 0.013096)
(2.38714e-05 1.2171e-05 0.0133937)
(2.68333e-05 1.86004e-05 0.0137173)
(2.44393e-05 2.44393e-05 0.0138274)
(1.69178e-05 2.8738e-05 0.0138577)
(6.02748e-06 3.09818e-05 0.0138636)
(-6.02747e-06 3.09818e-05 0.0138636)
(-1.69178e-05 2.8738e-05 0.0138577)
(-2.44393e-05 2.44393e-05 0.0138274)
(-2.68333e-05 1.86004e-05 0.0137173)
(-2.38714e-05 1.2171e-05 0.0133937)
(2.81554e-05 8.46483e-06 0.0135435)
(3.17486e-05 1.29233e-05 0.0137937)
(2.8738e-05 1.69178e-05 0.0138577)
(1.98152e-05 1.98152e-05 0.013865)
(7.04494e-06 2.13151e-05 0.013862)
(-7.04493e-06 2.13151e-05 0.013862)
(-1.98152e-05 1.98152e-05 0.013865)
(-2.8738e-05 1.69178e-05 0.0138577)
(-3.17486e-05 1.29233e-05 0.0137937)
(-2.81554e-05 8.46482e-06 0.0135435)
(3.04015e-05 3.03707e-06 0.0136046)
(3.43349e-05 4.61659e-06 0.0138195)
(3.09818e-05 6.02748e-06 0.0138636)
(2.13151e-05 7.04494e-06 0.013862)
(7.56958e-06 7.56958e-06 0.0138558)
(-7.56958e-06 7.56958e-06 0.0138558)
(-2.13151e-05 7.04494e-06 0.013862)
(-3.09818e-05 6.02748e-06 0.0138636)
(-3.43349e-05 4.61659e-06 0.0138195)
(-3.04015e-05 3.03707e-06 0.0136046)
(3.04015e-05 -3.03707e-06 0.0136046)
(3.43349e-05 -4.61659e-06 0.0138195)
(3.09818e-05 -6.02747e-06 0.0138636)
(2.13151e-05 -7.04493e-06 0.013862)
(7.56958e-06 -7.56958e-06 0.0138558)
(-7.56958e-06 -7.56958e-06 0.0138558)
(-2.13151e-05 -7.04493e-06 0.013862)
(-3.09818e-05 -6.02747e-06 0.0138636)
(-3.43349e-05 -4.61659e-06 0.0138195)
(-3.04015e-05 -3.03707e-06 0.0136046)
(2.81554e-05 -8.46483e-06 0.0135435)
(3.17486e-05 -1.29233e-05 0.0137937)
(2.8738e-05 -1.69178e-05 0.0138577)
(1.98152e-05 -1.98152e-05 0.013865)
(7.04494e-06 -2.13151e-05 0.013862)
(-7.04493e-06 -2.13151e-05 0.013862)
(-1.98152e-05 -1.98152e-05 0.013865)
(-2.8738e-05 -1.69178e-05 0.0138577)
(-3.17486e-05 -1.29233e-05 0.0137937)
(-2.81554e-05 -8.46482e-06 0.0135435)
(2.38714e-05 -1.2171e-05 0.0133937)
(2.68333e-05 -1.86004e-05 0.0137173)
(2.44393e-05 -2.44393e-05 0.0138274)
(1.69178e-05 -2.8738e-05 0.0138577)
(6.02748e-06 -3.09818e-05 0.0138636)
(-6.02747e-06 -3.09818e-05 0.0138636)
(-1.69178e-05 -2.8738e-05 0.0138577)
(-2.44393e-05 -2.44393e-05 0.0138274)
(-2.68333e-05 -1.86004e-05 0.0137173)
(-2.38714e-05 -1.2171e-05 0.0133937)
(1.84732e-05 -1.29378e-05 0.013096)
(2.02907e-05 -2.02907e-05 0.0135277)
(1.86004e-05 -2.68333e-05 0.0137173)
(1.29233e-05 -3.17486e-05 0.0137937)
(4.61659e-06 -3.43349e-05 0.0138195)
(-4.61659e-06 -3.43349e-05 0.0138195)
(-1.29233e-05 -3.17486e-05 0.0137937)
(-1.86004e-05 -2.68333e-05 0.0137173)
(-2.02907e-05 -2.02907e-05 0.0135277)
(-1.84732e-05 -1.29378e-05 0.013096)
(1.25075e-05 -1.25075e-05 0.0125685)
(1.29378e-05 -1.84732e-05 0.013096)
(1.2171e-05 -2.38714e-05 0.0133937)
(8.46482e-06 -2.81554e-05 0.0135435)
(3.03706e-06 -3.04015e-05 0.0136046)
(-3.03707e-06 -3.04015e-05 0.0136046)
(-8.46482e-06 -2.81554e-05 0.0135435)
(-1.2171e-05 -2.38714e-05 0.0133937)
(-1.29378e-05 -1.84732e-05 0.013096)
(-1.25075e-05 -1.25075e-05 0.0125685)
(2.97479e-06 2.97479e-06 0.0125555)
(3.46468e-06 5.03197e-06 0.0130839)
(3.60641e-06 7.00765e-06 0.0133842)
(2.61916e-06 8.66508e-06 0.0135368)
(9.64008e-07 9.5478e-06 0.0135997)
(-9.64006e-07 9.5478e-06 0.0135997)
(-2.61916e-06 8.66507e-06 0.0135368)
(-3.60641e-06 7.00764e-06 0.0133842)
(-3.46468e-06 5.03196e-06 0.0130839)
(-2.97479e-06 2.97479e-06 0.0125555)
(5.03197e-06 3.46468e-06 0.0130839)
(6.24124e-06 6.24124e-06 0.0135207)
(6.16812e-06 8.86534e-06 0.0137172)
(4.45079e-06 1.09275e-05 0.0137996)
(1.61998e-06 1.20335e-05 0.0138288)
(-1.61998e-06 1.20335e-05 0.0138288)
(-4.45079e-06 1.09275e-05 0.0137996)
(-6.16812e-06 8.86534e-06 0.0137172)
(-6.24123e-06 6.24123e-06 0.0135207)
(-5.03197e-06 3.46468e-06 0.0130839)
(7.00765e-06 3.60641e-06 0.0133842)
(8.86534e-06 6.16812e-06 0.0137172)
(8.62771e-06 8.62771e-06 0.0138379)
(6.18208e-06 1.05131e-05 0.0138769)
(2.23805e-06 1.15154e-05 0.0138875)
(-2.23805e-06 1.15154e-05 0.0138875)
(-6.18207e-06 1.05131e-05 0.0138769)
(-8.62771e-06 8.62771e-06 0.0138379)
(-8.86533e-06 6.16812e-06 0.0137172)
(-7.00764e-06 3.60641e-06 0.0133842)
(8.66508e-06 2.61916e-06 0.0135368)
(1.09275e-05 4.45079e-06 0.0137996)
(1.05131e-05 6.18208e-06 0.0138769)
(7.48689e-06 7.48689e-06 0.0138946)
(2.70108e-06 8.17478e-06 0.0138971)
(-2.70108e-06 8.17478e-06 0.0138971)
(-7.48688e-06 7.48689e-06 0.0138946)
(-1.05131e-05 6.18208e-06 0.0138769)
(-1.09275e-05 4.45079e-06 0.0137996)
(-8.66507e-06 2.61916e-06 0.0135368)
(9.5478e-06 9.64008e-07 0.0135997)
(1.20335e-05 1.61998e-06 0.0138288)
(1.15154e-05 2.23806e-06 0.0138875)
(8.17478e-06 2.70108e-06 0.0138971)
(2.94434e-06 2.94434e-06 0.0138968)
(-2.94434e-06 2.94434e-06 0.0138968)
(-8.17477e-06 2.70108e-06 0.0138971)
(-1.15154e-05 2.23806e-06 0.0138875)
(-1.20335e-05 1.61998e-06 0.0138288)
(-9.54779e-06 9.64006e-07 0.0135997)
(9.54779e-06 -9.64007e-07 0.0135997)
(1.20335e-05 -1.61998e-06 0.0138288)
(1.15154e-05 -2.23805e-06 0.0138875)
(8.17478e-06 -2.70108e-06 0.0138971)
(2.94434e-06 -2.94434e-06 0.0138968)
(-2.94434e-06 -2.94434e-06 0.0138968)
(-8.17477e-06 -2.70108e-06 0.0138971)
(-1.15154e-05 -2.23805e-06 0.0138875)
(-1.20335e-05 -1.61998e-06 0.0138288)
(-9.54779e-06 -9.64007e-07 0.0135997)
(8.66507e-06 -2.61916e-06 0.0135368)
(1.09275e-05 -4.45079e-06 0.0137996)
(1.05131e-05 -6.18207e-06 0.0138769)
(7.48689e-06 -7.48689e-06 0.0138946)
(2.70108e-06 -8.17477e-06 0.0138971)
(-2.70108e-06 -8.17477e-06 0.0138971)
(-7.48688e-06 -7.48688e-06 0.0138946)
(-1.05131e-05 -6.18207e-06 0.0138769)
(-1.09275e-05 -4.45079e-06 0.0137996)
(-8.66507e-06 -2.61915e-06 0.0135368)
(7.00764e-06 -3.60641e-06 0.0133842)
(8.86534e-06 -6.16812e-06 0.0137172)
(8.62771e-06 -8.62771e-06 0.0138379)
(6.18208e-06 -1.05131e-05 0.0138769)
(2.23806e-06 -1.15153e-05 0.0138875)
(-2.23805e-06 -1.15153e-05 0.0138875)
(-6.18207e-06 -1.05131e-05 0.0138769)
(-8.62771e-06 -8.62771e-06 0.0138379)
(-8.86533e-06 -6.16812e-06 0.0137172)
(-7.00764e-06 -3.6064e-06 0.0133842)
(5.03197e-06 -3.46468e-06 0.0130839)
(6.24124e-06 -6.24123e-06 0.0135207)
(6.16812e-06 -8.86533e-06 0.0137172)
(4.45079e-06 -1.09275e-05 0.0137996)
(1.61998e-06 -1.20335e-05 0.0138288)
(-1.61998e-06 -1.20335e-05 0.0138288)
(-4.45079e-06 -1.09275e-05 0.0137996)
(-6.16812e-06 -8.86533e-06 0.0137172)
(-6.24123e-06 -6.24123e-06 0.0135207)
(-5.03196e-06 -3.46468e-06 0.0130839)
(2.97479e-06 -2.97479e-06 0.0125555)
(3.46468e-06 -5.03196e-06 0.0130839)
(3.60641e-06 -7.00764e-06 0.0133842)
(2.61916e-06 -8.66507e-06 0.0135368)