/*--------------------------------*- C++ -*----------------------------------*\
| =========                 |                                                 |
| \\      /  F ield         | OpenFOAM: The Open Source CFD Toolbox           |
|  \\    /   O peration     | Version:  2412                                  |
|   \\  /    A nd           | Website:  www.openfoam.com                      |
|    \\/     M anipulation  |                                                 |
\*---------------------------------------------------------------------------*/
FoamFile
{
    version     2.0;
    format      ascii;
    arch        "LSB;label=32;scalar=64";
    class       surfaceScalarField;
    location    "8";
    object      phi;
}
// * * * * * * * * * * * * * * * * * * * * * * * * * * * * * * * * * * * * * //

dimensions      [0 3 -1 0 0 0 0];

oriented        oriented;

internalField   nonuniform List<scalar> 
43700
(
1.84561e-07
1.84561e-07
5.49844e-07
-2.24474e-07
-2.24474e-07
1.36557e-07
1.63702e-07
5.93723e-07
-2.00037e-07
9.04713e-08
1.50264e-07
6.24888e-07
-1.89635e-07
4.49066e-08
1.41316e-07
6.44913e-07
-1.80951e-07
1.6317e-16
1.37016e-07
6.54763e-07
-1.76944e-07
-4.49066e-08
1.37016e-07
6.54763e-07
-1.76944e-07
-9.04713e-08
1.41316e-07
6.44913e-07
-1.80951e-07
-1.36557e-07
1.50264e-07
6.24888e-07
-1.89635e-07
-1.84561e-07
1.63702e-07
5.93723e-07
-2.00037e-07
1.84561e-07
5.49844e-07
-2.24474e-07
-2.24474e-07
1.63702e-07
1.36557e-07
5.93723e-07
-2.00037e-07
1.218e-07
1.218e-07
6.29647e-07
8.02944e-08
1.10621e-07
6.54839e-07
3.9779e-08
1.03169e-07
6.71158e-07
1.49936e-16
9.95265e-08
6.7924e-07
-3.9779e-08
9.95265e-08
6.7924e-07
-8.02944e-08
1.03169e-07
6.71158e-07
-1.218e-07
1.10621e-07
6.54839e-07
-1.63702e-07
1.218e-07
6.29647e-07
1.36557e-07
5.93723e-07
-2.00037e-07
1.50264e-07
9.04713e-08
6.24888e-07
-1.89635e-07
1.10621e-07
8.02944e-08
6.54839e-07
7.24945e-08
7.24945e-08
6.76127e-07
3.58219e-08
6.72814e-08
6.90123e-07
2.69936e-16
6.47159e-08
6.9711e-07
-3.58219e-08
6.47159e-08
6.9711e-07
-7.24945e-08
6.72814e-08
6.90123e-07
-1.10621e-07
7.24945e-08
6.76127e-07
-1.50264e-07
8.02944e-08
6.54839e-07
9.04713e-08
6.24888e-07
-1.89635e-07
1.41316e-07
4.49066e-08
6.44913e-07
-1.80951e-07
1.03169e-07
3.9779e-08
6.71158e-07
6.72814e-08
3.58219e-08
6.90123e-07
3.31625e-08
3.31625e-08
7.02741e-07
4.48705e-17
3.1848e-08
7.09072e-07
-3.31625e-08
3.1848e-08
7.09072e-07
-6.72814e-08
3.31625e-08
7.02741e-07
-1.03169e-07
3.58219e-08
6.90123e-07
-1.41316e-07
3.9779e-08
6.71158e-07
4.49066e-08
6.44913e-07
-1.80951e-07
1.37016e-07
2.25844e-16
6.54763e-07
-1.76944e-07
9.95265e-08
1.83789e-16
6.7924e-07
6.47159e-08
6.99695e-17
6.9711e-07
3.1848e-08
4.99861e-17
7.09072e-07
-1.37708e-17
4.7132e-17
7.15089e-07
-3.1848e-08
-1.21328e-16
7.15089e-07
-6.47159e-08
-6.55761e-17
7.09072e-07
-9.95265e-08
6.35247e-17
6.9711e-07
-1.37016e-07
1.05328e-16
6.7924e-07
-5.24562e-17
6.54763e-07
-1.76944e-07
1.37016e-07
-4.49066e-08
6.54763e-07
-1.76944e-07
9.95265e-08
-3.9779e-08
6.7924e-07
6.47159e-08
-3.58219e-08
6.9711e-07
3.1848e-08
-3.31625e-08
7.09072e-07
-1.92441e-16
-3.1848e-08
7.15089e-07
-3.1848e-08
-3.1848e-08
7.15089e-07
-6.47159e-08
-3.31625e-08
7.09072e-07
-9.95265e-08
-3.58219e-08
6.9711e-07
-1.37016e-07
-3.9779e-08
6.7924e-07
-4.49066e-08
6.54763e-07
-1.76944e-07
1.41316e-07
-9.04713e-08
6.44913e-07
-1.80951e-07
1.03169e-07
-8.02944e-08
6.71158e-07
6.72814e-08
-7.24945e-08
6.90123e-07
3.31625e-08
-6.72814e-08
7.02741e-07
4.73285e-17
-6.47159e-08
7.09072e-07
-3.31625e-08
-6.47159e-08
7.09072e-07
-6.72814e-08
-6.72814e-08
7.02741e-07
-1.03169e-07
-7.24945e-08
6.90123e-07
-1.41316e-07
-8.02944e-08
6.71158e-07
-9.04713e-08
6.44913e-07
-1.80951e-07
1.50264e-07
-1.36557e-07
6.24888e-07
-1.89635e-07
1.10621e-07
-1.218e-07
6.54839e-07
7.24945e-08
-1.10621e-07
6.76127e-07
3.58219e-08
-1.03169e-07
6.90123e-07
3.33869e-17
-9.95265e-08
6.9711e-07
-3.58219e-08
-9.95265e-08
6.9711e-07
-7.24945e-08
-1.03169e-07
6.90123e-07
-1.10621e-07
-1.10621e-07
6.76127e-07
-1.50264e-07
-1.218e-07
6.54839e-07
-1.36557e-07
6.24888e-07
-1.89635e-07
1.63702e-07
-1.84561e-07
5.93723e-07
-2.00037e-07
1.218e-07
-1.63702e-07
6.29647e-07
8.02944e-08
-1.50264e-07
6.54839e-07
3.9779e-08
-1.41316e-07
6.71158e-07
-5.54888e-17
-1.37016e-07
6.7924e-07
-3.9779e-08
-1.37016e-07
6.7924e-07
-8.02944e-08
-1.41316e-07
6.71158e-07
-1.218e-07
-1.50264e-07
6.54839e-07
-1.63702e-07
-1.63702e-07
6.29647e-07
-1.84561e-07
5.93723e-07
-2.00037e-07
1.84561e-07
5.49844e-07
-2.24474e-07
-2.24474e-07
1.36557e-07
5.93723e-07
-2.00037e-07
9.04713e-08
6.24888e-07
-1.89635e-07
4.49066e-08
6.44913e-07
-1.80951e-07
7.37948e-17
6.54763e-07
-1.76944e-07
-4.49066e-08
6.54763e-07
-1.76944e-07
-9.04713e-08
6.44913e-07
-1.80951e-07
-1.36557e-07
6.24888e-07
-1.89635e-07
-1.84561e-07
5.93723e-07
-2.00037e-07
5.49844e-07
-2.24474e-07
-2.24474e-07
1.30976e-07
1.30976e-07
5.86636e-07
-1.49372e-07
-1.49372e-07
1.03258e-07
1.28751e-07
6.42828e-07
-1.50138e-07
7.06231e-08
1.25211e-07
6.81511e-07
-1.492e-07
3.56769e-08
1.21773e-07
7.05438e-07
-1.47353e-07
2.09712e-16
1.19947e-07
7.16882e-07
-1.46389e-07
-3.56769e-08
1.19947e-07
7.16882e-07
-1.46389e-07
-7.06231e-08
1.21773e-07
7.05438e-07
-1.47353e-07
-1.03258e-07
1.25211e-07
6.81511e-07
-1.492e-07
-1.30976e-07
1.28751e-07
6.42828e-07
-1.50138e-07
1.30976e-07
5.86636e-07
-1.49372e-07
-1.49372e-07
1.28751e-07
1.03258e-07
6.42828e-07
-1.50138e-07
9.937e-08
9.937e-08
6.88409e-07
6.69095e-08
9.48971e-08
7.17613e-07
3.34969e-08
9.12256e-08
7.35119e-07
2.10024e-16
8.93006e-08
7.43384e-07
-3.34969e-08
8.93006e-08
7.43384e-07
-6.69095e-08
9.12256e-08
7.35119e-07
-9.937e-08
9.48971e-08
7.17613e-07
-1.28751e-07
9.937e-08
6.88409e-07
1.03258e-07
6.42828e-07
-1.50138e-07
1.25211e-07
7.06231e-08
6.81511e-07
-1.492e-07
9.48971e-08
6.69095e-08
7.17613e-07
6.30815e-08
6.30815e-08
7.39758e-07
3.13684e-08
6.01728e-08
7.52889e-07
2.05474e-16
5.86753e-08
7.59104e-07
-3.13684e-08
5.86753e-08
7.59104e-07
-6.30815e-08
6.01728e-08
7.52889e-07
-9.48971e-08
6.30815e-08
7.39758e-07
-1.25211e-07
6.69095e-08
7.17613e-07
7.06231e-08
6.81511e-07
-1.492e-07
1.21773e-07
3.56769e-08
7.05438e-07
-1.47353e-07
9.12256e-08
3.34969e-08
7.35119e-07
6.01728e-08
3.13684e-08
7.52889e-07
2.98047e-08
2.98047e-08
7.63477e-07
3.48312e-17
2.90079e-08
7.68544e-07
-2.98047e-08
2.90079e-08
7.68544e-07
-6.01728e-08
2.98047e-08
7.63477e-07
-9.12256e-08
3.13684e-08
7.52889e-07
-1.21773e-07
3.34969e-08
7.35119e-07
3.56769e-08
7.05438e-07
-1.47353e-07
1.19947e-07
-1.19615e-16
7.16882e-07
-1.46389e-07
8.93006e-08
8.90449e-17
7.43384e-07
5.86753e-08
-8.8202e-17
7.59104e-07
2.90079e-08
-2.76467e-16
7.68544e-07
1.33296e-16
9.13022e-17
7.73104e-07
-2.90079e-08
-1.73757e-17
7.73104e-07
-5.86753e-08
-2.0967e-16
7.68544e-07
-8.93006e-08
-2.89812e-17
7.59104e-07
-1.19947e-07
7.79191e-18
7.43384e-07
-3.0626e-18
7.16882e-07
-1.46389e-07
1.19947e-07
-3.56769e-08
7.16882e-07
-1.46389e-07
8.93006e-08
-3.34969e-08
7.43384e-07
5.86753e-08
-3.13684e-08
7.59104e-07
2.90079e-08
-2.98047e-08
7.68544e-07
6.18486e-17
-2.90079e-08
7.73104e-07
-2.90079e-08
-2.90079e-08
7.73104e-07
-5.86753e-08
-2.98047e-08
7.68544e-07
-8.93006e-08
-3.13684e-08
7.59104e-07
-1.19947e-07
-3.34969e-08
7.43384e-07
-3.56769e-08
7.16882e-07
-1.46389e-07
1.21773e-07
-7.06231e-08
7.05438e-07
-1.47353e-07
9.12256e-08
-6.69095e-08
7.35119e-07
6.01728e-08
-6.30815e-08
7.52889e-07
2.98047e-08
-6.01728e-08
7.63477e-07
9.11732e-17
-5.86753e-08
7.68544e-07
-2.98047e-08
-5.86753e-08
7.68544e-07
-6.01728e-08
-6.01728e-08
7.63477e-07
-9.12256e-08
-6.30815e-08
7.52889e-07
-1.21773e-07
-6.69095e-08
7.35119e-07
-7.06231e-08
7.05438e-07
-1.47353e-07
1.25211e-07
-1.03258e-07
6.81511e-07
-1.492e-07
9.48971e-08
-9.937e-08
7.17613e-07
6.30815e-08
-9.48971e-08
7.39758e-07
3.13684e-08
-9.12256e-08
7.52889e-07
-2.15594e-16
-8.93006e-08
7.59104e-07
-3.13684e-08
-8.93006e-08
7.59104e-07
-6.30815e-08
-9.12256e-08
7.52889e-07
-9.48971e-08
-9.48971e-08
7.39758e-07
-1.25211e-07
-9.937e-08
7.17613e-07
-1.03258e-07
6.81511e-07
-1.492e-07
1.28751e-07
-1.30976e-07
6.42828e-07
-1.50138e-07
9.937e-08
-1.28751e-07
6.88409e-07
6.69095e-08
-1.25211e-07
7.17613e-07
3.34969e-08
-1.21773e-07
7.35119e-07
-2.77704e-16
-1.19947e-07
7.43384e-07
-3.34969e-08
-1.19947e-07
7.43384e-07
-6.69095e-08
-1.21773e-07
7.35119e-07
-9.937e-08
-1.25211e-07
7.17613e-07
-1.28751e-07
-1.28751e-07
6.88409e-07
-1.30976e-07
6.42828e-07
-1.50138e-07
1.30976e-07
5.86636e-07
-1.49372e-07
-1.49372e-07
1.03258e-07
6.42828e-07
-1.50138e-07
7.06231e-08
6.81511e-07
-1.492e-07
3.56769e-08
7.05438e-07
-1.47353e-07
3.37584e-16
7.16882e-07
-1.46389e-07
-3.56769e-08
7.16882e-07
-1.46389e-07
-7.06231e-08
7.05438e-07
-1.47353e-07
-1.03258e-07
6.81511e-07
-1.492e-07
-1.30976e-07
6.42828e-07
-1.50138e-07
5.86636e-07
-1.49372e-07
-1.49372e-07
1.01804e-07
1.01804e-07
5.96743e-07
-1.06857e-07
-1.06857e-07
8.54563e-08
1.07622e-07
6.66346e-07
-1.14792e-07
6.09025e-08
1.09901e-07
7.14929e-07
-1.18766e-07
3.15395e-08
1.10213e-07
7.45093e-07
-1.20505e-07
9.48504e-17
1.10115e-07
7.59481e-07
-1.21175e-07
-3.15395e-08
1.10115e-07
7.59481e-07
-1.21175e-07
-6.09025e-08
1.10213e-07
7.45093e-07
-1.20505e-07
-8.54563e-08
1.09901e-07
7.14929e-07
-1.18766e-07
-1.01804e-07
1.07622e-07
6.66346e-07
-1.14792e-07
1.01804e-07
5.96743e-07
-1.06857e-07
-1.06857e-07
1.07622e-07
8.54563e-08
6.66346e-07
-1.14792e-07
8.86622e-08
8.86622e-08
7.26329e-07
6.24059e-08
8.92361e-08
7.64535e-07
3.20716e-08
8.86445e-08
7.87022e-07
2.50609e-16
8.81227e-08
7.97448e-07
-3.20716e-08
8.81227e-08
7.97448e-07
-6.24059e-08
8.86445e-08
7.87022e-07
-8.86622e-08
8.92361e-08
7.64535e-07
-1.07622e-07
8.86622e-08
7.26329e-07
8.54563e-08
6.66346e-07
-1.14792e-07
1.09901e-07
6.09025e-08
7.14929e-07
-1.18766e-07
8.92361e-08
6.24059e-08
7.64535e-07
6.21493e-08
6.21493e-08
7.93932e-07
3.17583e-08
6.13446e-08
8.1058e-07
6.41426e-17
6.07921e-08
8.18193e-07
-3.17583e-08
6.07921e-08
8.18193e-07
-6.21493e-08
6.13446e-08
8.1058e-07
-8.92361e-08
6.21493e-08
7.93932e-07
-1.09901e-07
6.24059e-08
7.64535e-07
6.09025e-08
7.14929e-07
-1.18766e-07
1.10213e-07
3.15395e-08
7.45093e-07
-1.20505e-07
8.86445e-08
3.20716e-08
7.87022e-07
6.13446e-08
3.17583e-08
8.1058e-07
3.12468e-08
3.12468e-08
8.23673e-07
1.43389e-17
3.0919e-08
8.29664e-07
-3.12468e-08
3.0919e-08
8.29664e-07
-6.13446e-08
3.12468e-08
8.23673e-07
-8.86445e-08
3.17583e-08
8.1058e-07
-1.10213e-07
3.20716e-08
7.87022e-07
3.15395e-08
7.45093e-07
-1.20505e-07
1.10115e-07
2.20702e-16
7.59481e-07
-1.21175e-07
8.81227e-08
5.87276e-16
7.97448e-07
6.07921e-08
-1.52456e-17
8.18193e-07
3.0919e-08
-2.69853e-16
8.29664e-07
3.4786e-16
3.08744e-16
8.34942e-07
-3.0919e-08
4.19452e-16
8.34942e-07
-6.07921e-08
4.82303e-17
8.29664e-07
-8.81227e-08
1.46844e-16
8.18193e-07
-1.10115e-07
9.21077e-17
7.97448e-07
1.00017e-16
7.59481e-07
-1.21175e-07
1.10115e-07
-3.15395e-08
7.59481e-07
-1.21175e-07
8.81227e-08
-3.20716e-08
7.97448e-07
6.07921e-08
-3.17583e-08
8.18193e-07
3.0919e-08
-3.12468e-08
8.29664e-07
3.7159e-16
-3.0919e-08
8.34942e-07
-3.0919e-08
-3.0919e-08
8.34942e-07
-6.07921e-08
-3.12468e-08
8.29664e-07
-8.81227e-08
-3.17583e-08
8.18193e-07
-1.10115e-07
-3.20716e-08
7.97448e-07
-3.15395e-08
7.59481e-07
-1.21175e-07
1.10213e-07
-6.09025e-08
7.45093e-07
-1.20505e-07
8.86445e-08
-6.24059e-08
7.87022e-07
6.13446e-08
-6.21493e-08
8.1058e-07
3.12468e-08
-6.13446e-08
8.23673e-07
5.93413e-16
-6.07921e-08
8.29664e-07
-3.12468e-08
-6.07921e-08
8.29664e-07
-6.13446e-08
-6.13446e-08
8.23673e-07
-8.86445e-08
-6.21493e-08
8.1058e-07
-1.10213e-07
-6.24059e-08
7.87022e-07
-6.09025e-08
7.45093e-07
-1.20505e-07
1.09901e-07
-8.54563e-08
7.14929e-07
-1.18766e-07
8.92361e-08
-8.86622e-08
7.64535e-07
6.21493e-08
-8.92361e-08
7.93932e-07
3.17583e-08
-8.86445e-08
8.1058e-07
1.83024e-16
-8.81227e-08
8.18193e-07
-3.17583e-08
-8.81227e-08
8.18193e-07
-6.21493e-08
-8.86445e-08
8.1058e-07
-8.92361e-08
-8.92361e-08
7.93932e-07
-1.09901e-07
-8.86622e-08
7.64535e-07
-8.54563e-08
7.14929e-07
-1.18766e-07
1.07622e-07
-1.01804e-07
6.66346e-07
-1.14792e-07
8.86622e-08
-1.07622e-07
7.26329e-07
6.24059e-08
-1.09901e-07
7.64535e-07
3.20716e-08
-1.10213e-07
7.87022e-07
-2.88019e-16
-1.10115e-07
7.97448e-07
-3.20716e-08
-1.10115e-07
7.97448e-07
-6.24059e-08
-1.10213e-07
7.87022e-07
-8.86622e-08
-1.09901e-07
7.64535e-07
-1.07622e-07
-1.07622e-07
7.26329e-07
-1.01804e-07
6.66346e-07
-1.14792e-07
1.01804e-07
5.96743e-07
-1.06857e-07
-1.06857e-07
8.54563e-08
6.66346e-07
-1.14792e-07
6.09025e-08
7.14929e-07
-1.18766e-07
3.15395e-08
7.45093e-07
-1.20505e-07
8.56921e-17
7.59481e-07
-1.21175e-07
-3.15395e-08
7.59481e-07
-1.21175e-07
-6.09025e-08
7.45093e-07
-1.20505e-07
-8.54563e-08
7.14929e-07
-1.18766e-07
-1.01804e-07
6.66346e-07
-1.14792e-07
5.96743e-07
-1.06857e-07
-1.06857e-07
5.18994e-08
5.18994e-08
5.95972e-07
-5.15138e-08
-5.15138e-08
4.58173e-08
5.90795e-08
6.72395e-07
-5.90469e-08
3.37973e-08
6.34932e-08
7.26998e-07
-6.35423e-08
1.7886e-08
6.58711e-08
7.61428e-07
-6.62945e-08
2.20721e-16
6.68996e-08
7.77982e-07
-6.75149e-08
-1.7886e-08
6.68996e-08
7.77982e-07
-6.75149e-08
-3.37973e-08
6.58711e-08
7.61428e-07
-6.62945e-08
-4.58173e-08
6.34932e-08
7.26998e-07
-6.35423e-08
-5.18994e-08
5.90795e-08
6.72395e-07
-5.90469e-08
5.18994e-08
5.95972e-07
-5.15138e-08
-5.15138e-08
5.90795e-08
4.58173e-08
6.72395e-07
-5.90469e-08
5.13489e-08
5.13489e-08
7.4179e-07
3.75361e-08
5.46851e-08
7.87156e-07
1.97397e-08
5.63858e-08
8.14303e-07
9.70584e-16
5.70885e-08
8.26999e-07
-1.97397e-08
5.70885e-08
8.26999e-07
-3.75361e-08
5.63858e-08
8.14303e-07
-5.13489e-08
5.46851e-08
7.87156e-07
-5.90795e-08
5.13489e-08
7.4179e-07
4.58173e-08
6.72395e-07
-5.90469e-08
6.34932e-08
3.37973e-08
7.26998e-07
-6.35423e-08
5.46851e-08
3.75361e-08
7.87156e-07
3.96864e-08
3.96864e-08
8.23929e-07
2.07826e-08
4.0743e-08
8.45126e-07
8.24843e-16
4.11629e-08
8.54901e-07
-2.07826e-08
4.11629e-08
8.54901e-07
-3.96864e-08
4.0743e-08
8.45126e-07
-5.46851e-08
3.96864e-08
8.23929e-07
-6.34932e-08
3.75361e-08
7.87156e-07
3.37973e-08
7.26998e-07
-6.35423e-08
6.58711e-08
1.7886e-08
7.61428e-07
-6.62945e-08
5.63858e-08
1.97397e-08
8.14303e-07
4.0743e-08
2.07826e-08
8.45126e-07
2.12882e-08
2.12882e-08
8.62582e-07
7.44135e-16
2.14853e-08
8.7063e-07
-2.12882e-08
2.14854e-08
8.7063e-07
-4.0743e-08
2.12882e-08
8.62582e-07
-5.63858e-08
2.07826e-08
8.45126e-07
-6.58711e-08
1.97397e-08
8.14303e-07
1.7886e-08
7.61428e-07
-6.62945e-08
6.68996e-08
2.98231e-16
7.77982e-07
-6.75149e-08
5.70885e-08
1.09783e-15
8.26999e-07
4.11629e-08
6.64312e-16
8.54901e-07
2.14853e-08
4.67096e-16
8.7063e-07
7.5748e-16
7.67232e-16
8.77913e-07
-2.14853e-08
6.91814e-16
8.77913e-07
-4.11629e-08
1.03025e-16
8.7063e-07
-5.70885e-08
-7.85344e-17
8.54901e-07
-6.68996e-08
-6.12062e-16
8.26999e-07
-4.47323e-16
7.77982e-07
-6.75149e-08
6.68996e-08
-1.7886e-08
7.77982e-07
-6.75149e-08
5.70885e-08
-1.97397e-08
8.26999e-07
4.11629e-08
-2.07826e-08
8.54901e-07
2.14853e-08
-2.12882e-08
8.7063e-07
5.72738e-16
-2.14853e-08
8.77913e-07
-2.14853e-08
-2.14853e-08
8.77913e-07
-4.11629e-08
-2.12882e-08
8.7063e-07
-5.70885e-08
-2.07826e-08
8.54901e-07
-6.68996e-08
-1.97397e-08
8.26999e-07
-1.7886e-08
7.77982e-07
-6.75149e-08
6.58711e-08
-3.37973e-08
7.61428e-07
-6.62945e-08
5.63858e-08
-3.75361e-08
8.14303e-07
4.0743e-08
-3.96864e-08
8.45126e-07
2.12882e-08
-4.0743e-08
8.62582e-07
7.41857e-16
-4.11629e-08
8.7063e-07
-2.12882e-08
-4.11629e-08
8.7063e-07
-4.0743e-08
-4.0743e-08
8.62582e-07
-5.63858e-08
-3.96864e-08
8.45126e-07
-6.58711e-08
-3.75361e-08
8.14303e-07
-3.37973e-08
7.61428e-07
-6.62945e-08
6.34932e-08
-4.58173e-08
7.26998e-07
-6.35423e-08
5.46851e-08
-5.13489e-08
7.87156e-07
3.96864e-08
-5.46851e-08
8.23929e-07
2.07826e-08
-5.63858e-08
8.45126e-07
2.69982e-16
-5.70885e-08
8.54901e-07
-2.07826e-08
-5.70885e-08
8.54901e-07
-3.96864e-08
-5.63858e-08
8.45126e-07
-5.46851e-08
-5.46851e-08
8.23929e-07
-6.34932e-08
-5.13489e-08
7.87156e-07
-4.58173e-08
7.26998e-07
-6.35423e-08
5.90795e-08
-5.18994e-08
6.72395e-07
-5.90469e-08
5.13489e-08
-5.90795e-08
7.4179e-07
3.75361e-08
-6.34932e-08
7.87156e-07
1.97397e-08
-6.58711e-08
8.14303e-07
-5.96016e-16
-6.68996e-08
8.26999e-07
-1.97397e-08
-6.68996e-08
8.26999e-07
-3.75361e-08
-6.58711e-08
8.14303e-07
-5.13489e-08
-6.34932e-08
7.87156e-07
-5.90795e-08
-5.90795e-08
7.4179e-07
-5.18994e-08
6.72395e-07
-5.90469e-08
5.18994e-08
5.95972e-07
-5.15138e-08
-5.15138e-08
4.58173e-08
6.72395e-07
-5.90469e-08
3.37973e-08
7.26998e-07
-6.35423e-08
1.7886e-08
7.61428e-07
-6.62945e-08
-3.12233e-16
7.77982e-07
-6.75149e-08
-1.7886e-08
7.77982e-07
-6.75149e-08
-3.37973e-08
7.61428e-07
-6.62945e-08
-4.58173e-08
7.26998e-07
-6.35423e-08
-5.18994e-08
6.72395e-07
-5.90469e-08
5.95972e-07
-5.15138e-08
-5.15138e-08
2.64323e-08
2.64323e-08
5.93285e-07
-2.50888e-08
-2.50888e-08
2.40418e-08
3.11676e-08
6.73027e-07
-2.94085e-08
1.81558e-08
3.44914e-08
7.30827e-07
-3.2434e-08
9.74906e-09
3.65313e-08
7.67695e-07
-3.43913e-08
3.06638e-16
3.74778e-08
7.85546e-07
-3.52929e-08
-9.74906e-09
3.74778e-08
7.85546e-07
-3.52929e-08
-1.81558e-08
3.65313e-08
7.67695e-07
-3.43913e-08
-2.40418e-08
3.44914e-08
7.30827e-07
-3.2434e-08
-2.64323e-08
3.11676e-08
6.73027e-07
-2.94085e-08
2.64323e-08
5.93285e-07
-2.50888e-08
-2.50888e-08
3.11676e-08
2.40418e-08
6.73027e-07
-2.94085e-08
2.82174e-08
2.82174e-08
7.47691e-07
2.12252e-08
3.11228e-08
7.97516e-07
1.13578e-08
3.28566e-08
8.27846e-07
8.24853e-16
3.36533e-08
8.42182e-07
-1.13578e-08
3.36533e-08
8.42182e-07
-2.12252e-08
3.28566e-08
8.27846e-07
-2.82174e-08
3.11228e-08
7.97516e-07
-3.11676e-08
2.82174e-08
7.47691e-07
2.40418e-08
6.73027e-07
-2.94085e-08
3.44914e-08
1.81558e-08
7.30827e-07
-3.2434e-08
3.11228e-08
2.12252e-08
7.97516e-07
2.33289e-08
2.33289e-08
8.39517e-07
1.24513e-08
2.45633e-08
8.64297e-07
5.94169e-16
2.51228e-08
8.75883e-07
-1.24513e-08
2.51228e-08
8.75883e-07
-2.33289e-08
2.45633e-08
8.64297e-07
-3.11228e-08
2.33289e-08
8.39517e-07
-3.44914e-08
2.12252e-08
7.97516e-07
1.81558e-08
7.30827e-07
-3.2434e-08
3.65313e-08
9.74906e-09
7.67695e-07
-3.43913e-08
3.28566e-08
1.13578e-08
8.27846e-07
2.45633e-08
1.24513e-08
8.64297e-07
1.30892e-08
1.30892e-08
8.8553e-07
5.15492e-16
1.33761e-08
8.95466e-07
-1.30892e-08
1.33761e-08
8.95466e-07
-2.45633e-08
1.30892e-08
8.8553e-07
-3.28566e-08
1.24513e-08
8.64297e-07
-3.65313e-08
1.13578e-08
8.27846e-07
9.74906e-09
7.67695e-07
-3.43913e-08
3.74778e-08
7.88827e-16
7.85546e-07
-3.52929e-08
3.36533e-08
1.24031e-15
8.42182e-07
2.51228e-08
8.17848e-16
8.75883e-07
1.33761e-08
5.18033e-16
8.95466e-07
6.43382e-16
6.96855e-16
9.04665e-07
-1.33761e-08
1.0543e-15
9.04665e-07
-2.51228e-08
9.57387e-16
8.95466e-07
-3.36533e-08
6.39523e-16
8.75883e-07
-3.74778e-08
-6.14583e-17
8.42182e-07
-1.63642e-16
7.85546e-07
-3.52929e-08
3.74778e-08
-9.74906e-09
7.85546e-07
-3.52929e-08
3.36533e-08
-1.13578e-08
8.42182e-07
2.51228e-08
-1.24513e-08
8.75883e-07
1.33761e-08
-1.30892e-08
8.95466e-07
9.13778e-16
-1.33761e-08
9.04665e-07
-1.33761e-08
-1.33761e-08
9.04665e-07
-2.51228e-08
-1.30892e-08
8.95466e-07
-3.36533e-08
-1.24513e-08
8.75883e-07
-3.74778e-08
-1.13578e-08
8.42182e-07
-9.74906e-09
7.85546e-07
-3.52929e-08
3.65313e-08
-1.81558e-08
7.67695e-07
-3.43913e-08
3.28566e-08
-2.12252e-08
8.27846e-07
2.45633e-08
-2.33289e-08
8.64297e-07
1.30892e-08
-2.45633e-08
8.8553e-07
1.26018e-15
-2.51228e-08
8.95466e-07
-1.30892e-08
-2.51228e-08
8.95466e-07
-2.45633e-08
-2.45633e-08
8.8553e-07
-3.28566e-08
-2.33289e-08
8.64297e-07
-3.65313e-08
-2.12252e-08
8.27846e-07
-1.81558e-08
7.67695e-07
-3.43913e-08
3.44914e-08
-2.40418e-08
7.30827e-07
-3.2434e-08
3.11228e-08
-2.82174e-08
7.97516e-07
2.33289e-08
-3.11228e-08
8.39517e-07
1.24513e-08
-3.28566e-08
8.64297e-07
8.65008e-16
-3.36533e-08
8.75883e-07
-1.24513e-08
-3.36533e-08
8.75883e-07
-2.33289e-08
-3.28566e-08
8.64297e-07
-3.11228e-08
-3.11228e-08
8.39517e-07
-3.44914e-08
-2.82174e-08
7.97516e-07
-2.40418e-08
7.30827e-07
-3.2434e-08
3.11676e-08
-2.64323e-08
6.73027e-07
-2.94085e-08
2.82174e-08
-3.11676e-08
7.47691e-07
2.12252e-08
-3.44914e-08
7.97516e-07
1.13578e-08
-3.65313e-08
8.27846e-07
-6.17034e-17
-3.74778e-08
8.42182e-07
-1.13578e-08
-3.74778e-08
8.42182e-07
-2.12252e-08
-3.65313e-08
8.27846e-07
-2.82174e-08
-3.44914e-08
7.97516e-07
-3.11676e-08
-3.11676e-08
7.47691e-07
-2.64323e-08
6.73027e-07
-2.94085e-08
2.64323e-08
5.93285e-07
-2.50888e-08
-2.50888e-08
2.40418e-08
6.73027e-07
-2.94085e-08
1.81558e-08
7.30827e-07
-3.2434e-08
9.74906e-09
7.67695e-07
-3.43913e-08
-2.52657e-17
7.85546e-07
-3.52929e-08
-9.74906e-09
7.85546e-07
-3.52929e-08
-1.81558e-08
7.67695e-07
-3.43913e-08
-2.40418e-08
7.30827e-07
-3.2434e-08
-2.64323e-08
6.73027e-07
-2.94085e-08
5.93285e-07
-2.50888e-08
-2.50888e-08
1.09361e-08
1.09361e-08
5.90849e-07
-9.7178e-09
-9.7178e-09
1.04704e-08
1.37683e-08
6.7172e-07
-1.19956e-08
8.2007e-09
1.59691e-08
7.30881e-07
-1.37543e-08
4.50114e-09
1.74419e-08
7.68926e-07
-1.49731e-08
1.61631e-16
1.81601e-08
7.87445e-07
-1.55584e-08
-4.50114e-09
1.81601e-08
7.87445e-07
-1.55584e-08
-8.2007e-09
1.74419e-08
7.68926e-07
-1.49731e-08
-1.04704e-08
1.59691e-08
7.30881e-07
-1.37543e-08
-1.09361e-08
1.37683e-08
6.7172e-07
-1.19956e-08
1.09361e-08
5.90849e-07
-9.7178e-09
-9.7178e-09
1.37683e-08
1.04704e-08
6.7172e-07
-1.19956e-08
1.32229e-08
1.32229e-08
7.48782e-07
1.03544e-08
1.5351e-08
8.01003e-07
5.67296e-09
1.67416e-08
8.33227e-07
8.04193e-16
1.74163e-08
8.48598e-07
-5.67296e-09
1.74163e-08
8.48598e-07
-1.03544e-08
1.67416e-08
8.33227e-07
-1.32229e-08
1.5351e-08
8.01003e-07
-1.37683e-08
1.32229e-08
7.48782e-07
1.04704e-08
6.7172e-07
-1.19956e-08
1.59691e-08
8.2007e-09
7.30881e-07
-1.37543e-08
1.5351e-08
1.03544e-08
8.01003e-07
1.20014e-08
1.20014e-08
8.46216e-07
6.56114e-09
1.30591e-08
8.7342e-07
8.33052e-16
1.35666e-08
8.86294e-07
-6.56114e-09
1.35666e-08
8.86294e-07
-1.20014e-08
1.30591e-08
8.7342e-07
-1.5351e-08
1.20014e-08
8.46216e-07
-1.59691e-08
1.03544e-08
8.01003e-07
8.2007e-09
7.30881e-07
-1.37543e-08
1.74419e-08
4.50114e-09
7.68926e-07
-1.49731e-08
1.67416e-08
5.67296e-09
8.33227e-07
1.30591e-08
6.56114e-09
8.7342e-07
7.12665e-09
7.12665e-09
8.97395e-07
7.34854e-16
7.39592e-09
9.08763e-07
-7.12665e-09
7.39592e-09
9.08763e-07
-1.30591e-08
7.12665e-09
8.97395e-07
-1.67416e-08
6.56114e-09
8.7342e-07
-1.74419e-08
5.67296e-09
8.33227e-07
4.50114e-09
7.68926e-07
-1.49731e-08
1.81601e-08
3.68721e-16
7.87445e-07
-1.55584e-08
1.74163e-08
6.89796e-16
8.48598e-07
1.35666e-08
6.75969e-16
8.86294e-07
7.39592e-09
6.66833e-16
9.08763e-07
7.43467e-16
7.75182e-16
9.19457e-07
-7.39591e-09
8.45262e-16
9.19457e-07
-1.35666e-08
7.44151e-16
9.08763e-07
-1.74163e-08
4.17173e-16
8.86294e-07
-1.81601e-08
3.98874e-17
8.48598e-07
3.81846e-17
7.87445e-07
-1.55584e-08
1.81601e-08
-4.50114e-09
7.87445e-07
-1.55584e-08
1.74163e-08
-5.67296e-09
8.48598e-07
1.35666e-08
-6.56114e-09
8.86294e-07
7.39592e-09
-7.12665e-09
9.08763e-07
8.06208e-16
-7.39591e-09
9.19457e-07
-7.39591e-09
-7.39591e-09
9.19457e-07
-1.35666e-08
-7.12665e-09
9.08763e-07
-1.74163e-08
-6.56114e-09
8.86294e-07
-1.81601e-08
-5.67296e-09
8.48598e-07
-4.50115e-09
7.87445e-07
-1.55584e-08
1.74419e-08
-8.2007e-09
7.68926e-07
-1.49731e-08
1.67416e-08
-1.03544e-08
8.33227e-07
1.30591e-08
-1.20014e-08
8.7342e-07
7.12665e-09
-1.30591e-08
8.97395e-07
9.22049e-16
-1.35666e-08
9.08763e-07
-7.12665e-09
-1.35666e-08
9.08763e-07
-1.30591e-08
-1.30591e-08
8.97395e-07
-1.67416e-08
-1.20014e-08
8.7342e-07
-1.74419e-08
-1.03544e-08
8.33227e-07
-8.2007e-09
7.68926e-07
-1.49731e-08
1.59691e-08
-1.04704e-08
7.30881e-07
-1.37543e-08
1.5351e-08
-1.32229e-08
8.01003e-07
1.20014e-08
-1.5351e-08
8.46216e-07
6.56114e-09
-1.67416e-08
8.7342e-07
6.0575e-16
-1.74163e-08
8.86294e-07
-6.56114e-09
-1.74163e-08
8.86294e-07
-1.20014e-08
-1.67416e-08
8.7342e-07
-1.5351e-08
-1.5351e-08
8.46216e-07
-1.59691e-08
-1.32229e-08
8.01003e-07
-1.04704e-08
7.30881e-07
-1.37543e-08
1.37683e-08
-1.09361e-08
6.7172e-07
-1.19956e-08
1.32229e-08
-1.37683e-08
7.48782e-07
1.03544e-08
-1.59691e-08
8.01003e-07
5.67296e-09
-1.74419e-08
8.33227e-07
-6.04027e-17
-1.81601e-08
8.48598e-07
-5.67296e-09
-1.81601e-08
8.48598e-07
-1.03544e-08
-1.74419e-08
8.33227e-07
-1.32229e-08
-1.59691e-08
8.01003e-07
-1.37683e-08
-1.37683e-08
7.48782e-07
-1.09361e-08
6.7172e-07
-1.19956e-08
1.09361e-08
5.90849e-07
-9.7178e-09
-9.7178e-09
1.04704e-08
6.7172e-07
-1.19956e-08
8.2007e-09
7.30881e-07
-1.37543e-08
4.50114e-09
7.68926e-07
-1.49731e-08
-5.09682e-17
7.87445e-07
-1.55584e-08
-4.50114e-09
7.87445e-07
-1.55584e-08
-8.2007e-09
7.68926e-07
-1.49731e-08
-1.04704e-08
7.30881e-07
-1.37543e-08
-1.09361e-08
6.7172e-07
-1.19956e-08
5.90849e-07
-9.7178e-09
-9.7178e-09
3.79013e-09
3.79013e-09
5.89495e-07
-3.11321e-09
-3.11321e-09
3.84887e-09
5.14852e-09
6.70592e-07
-4.07941e-09
3.13888e-09
6.30241e-09
7.30184e-07
-4.89487e-09
1.7645e-09
7.12918e-09
7.68669e-07
-5.49842e-09
3.46831e-16
7.54715e-09
7.87461e-07
-5.79777e-09
-1.7645e-09
7.54715e-09
7.87461e-07
-5.79777e-09
-3.13888e-09
7.12918e-09
7.68669e-07
-5.49842e-09
-3.84887e-09
6.30241e-09
7.30184e-07
-4.89487e-09
-3.79013e-09
5.14852e-09
6.70592e-07
-4.07941e-09
3.79013e-09
5.89495e-07
-3.11321e-09
-3.11321e-09
5.14852e-09
3.84887e-09
6.70592e-07
-4.07941e-09
5.28902e-09
5.28902e-09
7.48501e-07
4.32965e-09
6.50368e-09
8.01761e-07
2.43298e-09
7.35205e-09
8.34901e-07
5.38849e-16
7.77885e-09
8.508e-07
-2.43297e-09
7.77885e-09
8.508e-07
-4.32965e-09
7.35205e-09
8.34901e-07
-5.28902e-09
6.50368e-09
8.01761e-07
-5.14852e-09
5.28902e-09
7.48501e-07
3.84887e-09
6.70592e-07
-4.07941e-09
6.30241e-09
3.13888e-09
7.30184e-07
-4.89487e-09
6.50368e-09
4.32965e-09
8.01761e-07
5.32002e-09
5.32002e-09
8.48584e-07
2.98246e-09
5.99808e-09
8.77112e-07
5.92295e-16
6.33532e-09
8.9072e-07
-2.98246e-09
6.33532e-09
8.9072e-07
-5.32002e-09
5.99808e-09
8.77112e-07
-6.50368e-09
5.32002e-09
8.48584e-07
-6.30241e-09
4.32965e-09
8.01761e-07
3.13888e-09
7.30184e-07
-4.89487e-09
7.12918e-09
1.7645e-09
7.68669e-07
-5.49842e-09
7.35205e-09
2.43298e-09
8.34901e-07
5.99808e-09
2.98246e-09
8.77112e-07
3.35441e-09
3.35441e-09
9.02682e-07
6.40825e-16
3.53793e-09
9.14915e-07
-3.35441e-09
3.53793e-09
9.14915e-07
-5.99808e-09
3.35441e-09
9.02682e-07
-7.35205e-09
2.98246e-09
8.77112e-07
-7.12918e-09
2.43297e-09
8.34901e-07
1.7645e-09
7.68669e-07
-5.49842e-09
7.54715e-09
3.3237e-16
7.87461e-07
-5.79777e-09
7.77885e-09
3.55256e-16
8.508e-07
6.33532e-09
4.80814e-16
8.9072e-07
3.53793e-09
6.71152e-16
9.14915e-07
7.01942e-16
7.96014e-16
9.26533e-07
-3.53793e-09
8.73007e-16
9.26533e-07
-6.33532e-09
1.00122e-15
9.14915e-07
-7.77885e-09
6.64484e-16
8.9072e-07
-7.54715e-09
3.88027e-16
8.508e-07
2.93423e-16
7.87461e-07
-5.79777e-09
7.54715e-09
-1.7645e-09
7.87461e-07
-5.79777e-09
7.77885e-09
-2.43297e-09
8.508e-07
6.33532e-09
-2.98246e-09
8.9072e-07
3.53793e-09
-3.35441e-09
9.14915e-07
8.0177e-16
-3.53793e-09
9.26533e-07
-3.53793e-09
-3.53793e-09
9.26533e-07
-6.33532e-09
-3.35441e-09
9.14915e-07
-7.77885e-09
-2.98246e-09
8.9072e-07
-7.54715e-09
-2.43297e-09
8.508e-07
-1.7645e-09
7.87461e-07
-5.79777e-09
7.12918e-09
-3.13888e-09
7.68669e-07
-5.49842e-09
7.35205e-09
-4.32965e-09
8.34901e-07
5.99808e-09
-5.32002e-09
8.77112e-07
3.35441e-09
-5.99808e-09
9.02682e-07
8.65126e-16
-6.33531e-09
9.14915e-07
-3.35441e-09
-6.33531e-09
9.14915e-07
-5.99808e-09
-5.99808e-09
9.02682e-07
-7.35205e-09
-5.32002e-09
8.77112e-07
-7.12918e-09
-4.32965e-09
8.34901e-07
-3.13888e-09
7.68669e-07
-5.49842e-09
6.30241e-09
-3.84887e-09
7.30184e-07
-4.89487e-09
6.50368e-09
-5.28902e-09
8.01761e-07
5.32002e-09
-6.50368e-09
8.48584e-07
2.98246e-09
-7.35205e-09
8.77112e-07
5.95629e-16
-7.77885e-09
8.9072e-07
-2.98246e-09
-7.77885e-09
8.9072e-07
-5.32002e-09
-7.35205e-09
8.77112e-07
-6.50368e-09
-6.50368e-09
8.48584e-07
-6.30241e-09
-5.28902e-09
8.01761e-07
-3.84887e-09
7.30184e-07
-4.89487e-09
5.14852e-09
-3.79013e-09
6.70592e-07
-4.07941e-09
5.28902e-09
-5.14852e-09
7.48501e-07
4.32965e-09
-6.30241e-09
8.01761e-07
2.43297e-09
-7.12918e-09
8.34901e-07
9.62491e-17
-7.54715e-09
8.508e-07
-2.43297e-09
-7.54715e-09
8.508e-07
-4.32965e-09
-7.12918e-09
8.34901e-07
-5.28902e-09
-6.30241e-09
8.01761e-07
-5.14852e-09
-5.14852e-09
7.48501e-07
-3.79013e-09
6.70592e-07
-4.07941e-09
3.79013e-09
5.89495e-07
-3.11321e-09
-3.11321e-09
3.84887e-09
6.70592e-07
-4.07941e-09
3.13888e-09
7.30184e-07
-4.89487e-09
1.7645e-09
7.68669e-07
-5.49842e-09
-6.25325e-17
7.87461e-07
-5.79777e-09
-1.7645e-09
7.87461e-07
-5.79777e-09
-3.13888e-09
7.68669e-07
-5.49842e-09
-3.84887e-09
7.30184e-07
-4.89487e-09
-3.79013e-09
6.70592e-07
-4.07941e-09
5.89495e-07
-3.11321e-09
-3.11321e-09
1.11894e-09
1.11894e-09
5.88871e-07
-8.06927e-10
-8.06927e-10
1.23358e-09
1.68262e-09
6.69961e-07
-1.16574e-09
1.05981e-09
2.19613e-09
7.29656e-07
-1.49462e-09
6.13211e-10
2.58319e-09
7.68282e-07
-1.74939e-09
2.75112e-16
2.78402e-09
7.87169e-07
-1.8793e-09
-6.13211e-10
2.78402e-09
7.87169e-07
-1.8793e-09
-1.05981e-09
2.58319e-09
7.68282e-07
-1.74939e-09
-1.23358e-09
2.19613e-09
7.29656e-07
-1.49462e-09
-1.11894e-09
1.68262e-09
6.69961e-07
-1.16574e-09
1.11894e-09
5.88871e-07
-8.06927e-10
-8.06926e-10
1.68262e-09
1.23358e-09
6.69961e-07
-1.16574e-09
1.87646e-09
1.87646e-09
7.48113e-07
1.61436e-09
2.45453e-09
8.01765e-07
9.3201e-10
2.87818e-09
8.35289e-07
4.67625e-16
3.09671e-09
8.51419e-07
-9.32009e-10
3.09671e-09
8.51419e-07
-1.61436e-09
2.87818e-09
8.35289e-07
-1.87646e-09
2.45453e-09
8.01765e-07
-1.68262e-09
1.87646e-09
7.48113e-07
1.23358e-09
6.69961e-07
-1.16574e-09
2.19613e-09
1.05981e-09
7.29656e-07
-1.49462e-09
2.45453e-09
1.61436e-09
8.01765e-07
2.10503e-09
2.10503e-09
8.49283e-07
1.21018e-09
2.45675e-09
8.78428e-07
5.04156e-16
2.63597e-09
8.92391e-07
-1.21018e-09
2.63597e-09
8.92391e-07
-2.10502e-09
2.45675e-09
8.78428e-07
-2.45453e-09
2.10503e-09
8.49283e-07
-2.19613e-09
1.61436e-09
8.01765e-07
1.05981e-09
7.29656e-07
-1.49462e-09
2.58319e-09
6.13211e-10
7.68282e-07
-1.74939e-09
2.87818e-09
9.3201e-10
8.35289e-07
2.45675e-09
1.21018e-09
8.78428e-07
1.40703e-09
1.40703e-09
9.04782e-07
4.64544e-16
1.5065e-09
9.17452e-07
-1.40703e-09
1.5065e-09
9.17452e-07
-2.45675e-09
1.40703e-09
9.04782e-07
-2.87818e-09