/*--------------------------------*- C++ -*----------------------------------*\
| =========                 |                                                 |
| \\      /  F ield         | OpenFOAM: The Open Source CFD Toolbox           |
|  \\    /   O peration     | Version:  2412                                  |
|   \\  /    A nd           | Website:  www.openfoam.com                      |
|    \\/     M anipulation  |                                                 |
\*---------------------------------------------------------------------------*/
FoamFile
{
    version     2.0;
    format      ascii;
    arch        "LSB;label=32;scalar=64";
    class       volVectorField;
    location    "8";
    object      U;
}
// * * * * * * * * * * * * * * * * * * * * * * * * * * * * * * * * * * * * * //

dimensions      [0 1 -1 0 0 0 0];

internalField   nonuniform List<vector> 
15000
(
(0.00120974 0.00120974 0.0103922)
(0.000894641 0.00113231 0.0103429)
(0.000610242 0.00110596 0.0103015)
(0.000358525 0.00107993 0.0102745)
(0.000117801 0.00106797 0.0102619)
(-0.000117801 0.00106797 0.0102619)
(-0.000358525 0.00107993 0.0102745)
(-0.000610242 0.00110596 0.0103015)
(-0.000894641 0.00113231 0.0103429)
(-0.00120974 0.00120974 0.0103922)
(0.00113231 0.000894641 0.0103429)
(0.000843694 0.000843694 0.010279)
(0.000578081 0.000806996 0.0102375)
(0.00033744 0.000780922 0.010215)
(0.000110763 0.000768285 0.0102055)
(-0.000110763 0.000768285 0.0102055)
(-0.00033744 0.000780922 0.010215)
(-0.000578081 0.000806996 0.0102375)
(-0.000843694 0.000843694 0.010279)
(-0.00113231 0.000894641 0.0103429)
(0.00110596 0.000610242 0.0103015)
(0.000806996 0.000578081 0.0102375)
(0.000548921 0.000548921 0.0102031)
(0.000318643 0.000527756 0.0101864)
(0.000104372 0.000517108 0.0101796)
(-0.000104372 0.000517108 0.0101796)
(-0.000318643 0.000527756 0.0101864)
(-0.000548921 0.000548921 0.0102031)
(-0.000806996 0.000578081 0.0102375)
(-0.00110596 0.000610242 0.0103015)
(0.00107993 0.000358525 0.0102745)
(0.000780922 0.00033744 0.010215)
(0.000527756 0.000318643 0.0101864)
(0.000304955 0.000304955 0.010173)
(9.96884e-05 0.000297981 0.0101674)
(-9.96884e-05 0.000297981 0.0101674)
(-0.000304955 0.000304955 0.010173)
(-0.000527756 0.000318643 0.0101864)
(-0.000780922 0.00033744 0.010215)
(-0.00107993 0.000358525 0.0102745)
(0.00106797 0.000117801 0.0102619)
(0.000768285 0.000110763 0.0102055)
(0.000517108 0.000104372 0.0101796)
(0.000297981 9.96884e-05 0.0101674)
(9.72903e-05 9.72903e-05 0.0101621)
(-9.72903e-05 9.72903e-05 0.0101621)
(-0.000297981 9.96884e-05 0.0101674)
(-0.000517108 0.000104372 0.0101796)
(-0.000768285 0.000110763 0.0102055)
(-0.00106797 0.000117801 0.0102619)
(0.00106797 -0.000117801 0.0102619)
(0.000768285 -0.000110763 0.0102055)
(0.000517108 -0.000104372 0.0101796)
(0.000297981 -9.96884e-05 0.0101674)
(9.72903e-05 -9.72903e-05 0.0101621)
(-9.72903e-05 -9.72903e-05 0.0101621)
(-0.000297981 -9.96884e-05 0.0101674)
(-0.000517108 -0.000104372 0.0101796)
(-0.000768285 -0.000110763 0.0102055)
(-0.00106797 -0.000117801 0.0102619)
(0.00107993 -0.000358525 0.0102745)
(0.000780922 -0.00033744 0.010215)
(0.000527756 -0.000318643 0.0101864)
(0.000304955 -0.000304955 0.010173)
(9.96884e-05 -0.000297981 0.0101674)
(-9.96884e-05 -0.000297981 0.0101674)
(-0.000304955 -0.000304955 0.010173)
(-0.000527756 -0.000318643 0.0101864)
(-0.000780922 -0.00033744 0.010215)
(-0.00107993 -0.000358525 0.0102745)
(0.00110596 -0.000610242 0.0103015)
(0.000806996 -0.000578081 0.0102375)
(0.000548921 -0.000548921 0.0102031)
(0.000318643 -0.000527756 0.0101864)
(0.000104372 -0.000517108 0.0101796)
(-0.000104372 -0.000517108 0.0101796)
(-0.000318643 -0.000527756 0.0101864)
(-0.000548921 -0.000548921 0.0102031)
(-0.000806996 -0.000578081 0.0102375)
(-0.00110596 -0.000610242 0.0103015)
(0.00113231 -0.000894641 0.0103429)
(0.000843694 -0.000843694 0.010279)
(0.000578081 -0.000806996 0.0102375)
(0.00033744 -0.000780922 0.010215)
(0.000110763 -0.000768285 0.0102055)
(-0.000110763 -0.000768285 0.0102055)
(-0.00033744 -0.000780922 0.010215)
(-0.000578081 -0.000806996 0.0102375)
(-0.000843694 -0.000843694 0.010279)
(-0.00113231 -0.000894641 0.0103429)
(0.00120974 -0.00120974 0.0103922)
(0.000894641 -0.00113231 0.0103429)
(0.000610242 -0.00110596 0.0103015)
(0.000358525 -0.00107993 0.0102745)
(0.000117801 -0.00106797 0.0102619)
(-0.000117801 -0.00106797 0.0102619)
(-0.000358525 -0.00107993 0.0102745)
(-0.000610242 -0.00110596 0.0103015)
(-0.000894641 -0.00113231 0.0103429)
(-0.00120974 -0.00120974 0.0103922)
(0.000821419 0.000821419 0.012677)
(0.000651796 0.000870961 0.012652)
(0.000465163 0.000900139 0.0125623)
(0.000278552 0.000911623 0.0124742)
(9.22803e-05 0.000916643 0.0124239)
(-9.22803e-05 0.000916643 0.0124239)
(-0.000278552 0.000911623 0.0124742)
(-0.000465163 0.000900139 0.0125623)
(-0.000651796 0.000870961 0.012652)
(-0.000821419 0.000821419 0.012677)
(0.000870961 0.000651796 0.012652)
(0.000677657 0.000677657 0.0124939)
(0.000475752 0.000685027 0.0123114)
(0.000280755 0.000683503 0.0121724)
(9.2557e-05 0.000681766 0.0121)
(-9.2557e-05 0.000681766 0.0121)
(-0.000280755 0.000683503 0.0121724)
(-0.000475752 0.000685027 0.0123114)
(-0.000677657 0.000677657 0.0124939)
(-0.000870961 0.000651796 0.012652)
(0.000900139 0.000465163 0.0125623)
(0.000685027 0.000475752 0.0123114)
(0.000473949 0.000473949 0.0120799)
(0.000276921 0.000468554 0.0119185)
(9.09399e-05 0.00046512 0.0118375)
(-9.09399e-05 0.00046512 0.0118375)
(-0.000276921 0.000468554 0.0119185)
(-0.000473949 0.000473949 0.0120799)
(-0.000685027 0.000475752 0.0123114)
(-0.000900139 0.000465163 0.0125623)
(0.000911623 0.000278552 0.0124742)
(0.000683503 0.000280755 0.0121724)
(0.000468554 0.000276921 0.0119185)
(0.000272268 0.000272268 0.0117484)
(8.92157e-05 0.000269564 0.0116646)
(-8.92157e-05 0.000269564 0.0116646)
(-0.000272268 0.000272268 0.0117484)
(-0.000468554 0.000276921 0.0119185)
(-0.000683503 0.000280755 0.0121724)
(-0.000911623 0.000278552 0.0124742)
(0.000916643 9.22803e-05 0.0124239)
(0.000681766 9.2557e-05 0.0121)
(0.00046512 9.09399e-05 0.0118375)
(0.000269564 8.92157e-05 0.0116646)
(8.82384e-05 8.82384e-05 0.01158)
(-8.82384e-05 8.82384e-05 0.01158)
(-0.000269564 8.92157e-05 0.0116646)
(-0.00046512 9.09399e-05 0.0118375)
(-0.000681766 9.2557e-05 0.0121)
(-0.000916643 9.22803e-05 0.0124239)
(0.000916643 -9.22803e-05 0.0124239)
(0.000681766 -9.2557e-05 0.0121)
(0.00046512 -9.09399e-05 0.0118375)
(0.000269564 -8.92157e-05 0.0116646)
(8.82384e-05 -8.82384e-05 0.01158)
(-8.82384e-05 -8.82384e-05 0.01158)
(-0.000269564 -8.92157e-05 0.0116646)
(-0.00046512 -9.09399e-05 0.0118375)
(-0.000681766 -9.2557e-05 0.0121)
(-0.000916643 -9.22803e-05 0.0124239)
(0.000911623 -0.000278552 0.0124742)
(0.000683503 -0.000280755 0.0121724)
(0.000468554 -0.000276921 0.0119185)
(0.000272268 -0.000272268 0.0117484)
(8.92157e-05 -0.000269564 0.0116646)
(-8.92157e-05 -0.000269564 0.0116646)
(-0.000272268 -0.000272268 0.0117484)
(-0.000468554 -0.000276921 0.0119185)
(-0.000683503 -0.000280755 0.0121724)
(-0.000911623 -0.000278552 0.0124742)
(0.000900139 -0.000465163 0.0125623)
(0.000685027 -0.000475752 0.0123114)
(0.000473949 -0.000473949 0.0120799)
(0.000276921 -0.000468554 0.0119185)
(9.09399e-05 -0.00046512 0.0118375)
(-9.09399e-05 -0.00046512 0.0118375)
(-0.000276921 -0.000468554 0.0119185)
(-0.000473949 -0.000473949 0.0120799)
(-0.000685027 -0.000475752 0.0123114)
(-0.000900139 -0.000465163 0.0125623)
(0.000870961 -0.000651796 0.012652)
(0.000677657 -0.000677657 0.0124939)
(0.000475752 -0.000685027 0.0123114)
(0.000280755 -0.000683503 0.0121724)
(9.2557e-05 -0.000681766 0.0121)
(-9.2557e-05 -0.000681766 0.0121)
(-0.000280755 -0.000683503 0.0121724)
(-0.000475752 -0.000685027 0.0123114)
(-0.000677657 -0.000677657 0.0124939)
(-0.000870961 -0.000651796 0.012652)
(0.000821419 -0.000821419 0.012677)
(0.000651796 -0.000870961 0.012652)
(0.000465163 -0.000900139 0.0125623)
(0.000278552 -0.000911623 0.0124742)
(9.22803e-05 -0.000916643 0.0124239)
(-9.22803e-05 -0.000916643 0.0124239)
(-0.000278552 -0.000911623 0.0124742)
(-0.000465163 -0.000900139 0.0125623)
(-0.000651796 -0.000870961 0.012652)
(-0.000821419 -0.000821419 0.012677)
(0.000627183 0.000627183 0.0125237)
(0.00052581 0.000709644 0.0128214)
(0.000396683 0.000765238 0.0129319)
(0.000245446 0.000797505 0.0129532)
(8.27027e-05 0.00081266 0.0129499)
(-8.27027e-05 0.00081266 0.0129499)
(-0.000245446 0.000797505 0.0129532)
(-0.000396683 0.000765238 0.0129319)
(-0.00052581 0.000709644 0.0128214)
(-0.000627183 0.000627183 0.0125237)
(0.000709644 0.00052581 0.0128214)
(0.00059155 0.00059155 0.0129518)
(0.000438017 0.000629867 0.0129155)
(0.000267747 0.000649275 0.0128421)
(8.98301e-05 0.000657584 0.0127936)
(-8.98301e-05 0.000657584 0.0127936)
(-0.000267747 0.000649275 0.0128421)
(-0.000438017 0.000629867 0.0129155)
(-0.00059155 0.00059155 0.0129518)
(-0.000709644 0.00052581 0.0128214)
(0.000765238 0.000396683 0.0129319)
(0.000629867 0.000438017 0.0129155)
(0.000460681 0.000460681 0.0127777)
(0.000279175 0.000471226 0.0126468)
(9.3349e-05 0.000475398 0.0125735)
(-9.3349e-05 0.000475398 0.0125735)
(-0.000279175 0.000471226 0.0126468)
(-0.000460681 0.000460681 0.0127777)
(-0.000629867 0.000438017 0.0129155)
(-0.000765238 0.000396683 0.0129319)
(0.000797505 0.000245446 0.0129532)
(0.000649275 0.000267747 0.0128421)
(0.000471226 0.000279175 0.0126468)
(0.000284221 0.000284221 0.0124875)
(9.48616e-05 0.000286113 0.0124031)
(-9.48616e-05 0.000286113 0.0124031)
(-0.000284221 0.000284221 0.0124875)
(-0.000471226 0.000279175 0.0126468)
(-0.000649275 0.000267747 0.0128421)
(-0.000797505 0.000245446 0.0129532)
(0.00081266 8.27027e-05 0.0129499)
(0.000657584 8.98301e-05 0.0127936)
(0.000475398 9.3349e-05 0.0125735)
(0.000286113 9.48616e-05 0.0124031)
(9.54132e-05 9.54132e-05 0.0123148)
(-9.54132e-05 9.54132e-05 0.0123148)
(-0.000286113 9.48616e-05 0.0124031)
(-0.000475398 9.3349e-05 0.0125735)
(-0.000657584 8.98301e-05 0.0127936)
(-0.00081266 8.27027e-05 0.0129499)
(0.00081266 -8.27027e-05 0.0129499)
(0.000657584 -8.98301e-05 0.0127936)
(0.000475398 -9.3349e-05 0.0125735)
(0.000286113 -9.48616e-05 0.0124031)
(9.54132e-05 -9.54132e-05 0.0123148)
(-9.54132e-05 -9.54132e-05 0.0123148)
(-0.000286113 -9.48616e-05 0.0124031)
(-0.000475398 -9.3349e-05 0.0125735)
(-0.000657584 -8.98301e-05 0.0127936)
(-0.00081266 -8.27027e-05 0.0129499)
(0.000797505 -0.000245446 0.0129532)
(0.000649275 -0.000267747 0.0128421)
(0.000471226 -0.000279175 0.0126468)
(0.000284221 -0.000284221 0.0124875)
(9.48616e-05 -0.000286113 0.0124031)
(-9.48616e-05 -0.000286113 0.0124031)
(-0.000284221 -0.000284221 0.0124875)
(-0.000471226 -0.000279175 0.0126468)
(-0.000649275 -0.000267747 0.0128421)
(-0.000797505 -0.000245446 0.0129532)
(0.000765238 -0.000396683 0.0129319)
(0.000629867 -0.000438017 0.0129155)
(0.000460681 -0.000460681 0.0127777)
(0.000279175 -0.000471226 0.0126468)
(9.3349e-05 -0.000475398 0.0125735)
(-9.3349e-05 -0.000475398 0.0125735)
(-0.000279175 -0.000471226 0.0126468)
(-0.000460681 -0.000460681 0.0127777)
(-0.000629867 -0.000438017 0.0129155)
(-0.000765238 -0.000396683 0.0129319)
(0.000709644 -0.00052581 0.0128214)
(0.00059155 -0.00059155 0.0129518)
(0.000438017 -0.000629867 0.0129155)
(0.000267747 -0.000649275 0.0128421)
(8.98301e-05 -0.000657584 0.0127936)
(-8.98301e-05 -0.000657584 0.0127936)
(-0.000267747 -0.000649275 0.0128421)
(-0.000438017 -0.000629867 0.0129155)
(-0.00059155 -0.00059155 0.0129518)
(-0.000709644 -0.00052581 0.0128214)
(0.000627183 -0.000627183 0.0125237)
(0.00052581 -0.000709644 0.0128214)
(0.000396683 -0.000765238 0.0129319)
(0.000245446 -0.000797505 0.0129532)
(8.27027e-05 -0.00081266 0.0129499)
(-8.27027e-05 -0.00081266 0.0129499)
(-0.000245446 -0.000797505 0.0129532)
(-0.000396683 -0.000765238 0.0129319)
(-0.00052581 -0.000709644 0.0128214)
(-0.000627183 -0.000627183 0.0125237)
(0.000313373 0.000313373 0.0127525)
(0.000273989 0.000381427 0.0132199)
(0.000216935 0.000430858 0.0134528)
(0.000137847 0.000463458 0.0135493)
(4.71009e-05 0.000479275 0.0135807)
(-4.71009e-05 0.000479275 0.0135807)
(-0.000137847 0.000463458 0.0135493)
(-0.000216935 0.000430858 0.0134528)
(-0.000273989 0.000381427 0.0132199)
(-0.000313373 0.000313373 0.0127525)
(0.000381427 0.000273989 0.0132199)
(0.000335732 0.000335732 0.0135392)
(0.000260316 0.000378474 0.013618)
(0.000163906 0.000404703 0.0136069)
(5.58106e-05 0.000417162 0.013585)
(-5.58106e-05 0.000417162 0.013585)
(-0.000163906 0.000404703 0.0136069)
(-0.000260316 0.000378474 0.013618)
(-0.000335732 0.000335732 0.0135392)
(-0.000381427 0.000273989 0.0132199)
(0.000430858 0.000216935 0.0134528)
(0.000378474 0.000260316 0.013618)
(0.000290762 0.000290762 0.013577)
(0.000181973 0.000309259 0.0134924)
(6.18245e-05 0.000317983 0.0134373)
(-6.18245e-05 0.000317983 0.0134373)
(-0.000181973 0.000309259 0.0134924)
(-0.000290762 0.000290762 0.013577)
(-0.000378474 0.000260316 0.013618)
(-0.000430858 0.000216935 0.0134528)
(0.000463458 0.000137847 0.0135493)
(0.000404703 0.000163906 0.0136069)
(0.000309259 0.000181973 0.0134924)
(0.000192953 0.000192953 0.0133681)
(6.54816e-05 0.000198123 0.0132965)
(-6.54816e-05 0.000198123 0.0132965)
(-0.000192953 0.000192953 0.0133681)
(-0.000309259 0.000181973 0.0134924)
(-0.000404703 0.000163906 0.0136069)
(-0.000463458 0.000137847 0.0135493)
(0.000479275 4.71009e-05 0.0135807)
(0.000417162 5.58106e-05 0.013585)
(0.000317983 6.18245e-05 0.0134373)
(0.000198123 6.54816e-05 0.0132965)
(6.72012e-05 6.72012e-05 0.0132186)
(-6.72012e-05 6.72012e-05 0.0132186)
(-0.000198123 6.54816e-05 0.0132965)
(-0.000317983 6.18245e-05 0.0134373)
(-0.000417162 5.58106e-05 0.013585)
(-0.000479275 4.71009e-05 0.0135807)
(0.000479275 -4.71009e-05 0.0135807)
(0.000417162 -5.58106e-05 0.013585)
(0.000317983 -6.18245e-05 0.0134373)
(0.000198123 -6.54816e-05 0.0132965)
(6.72012e-05 -6.72012e-05 0.0132186)
(-6.72012e-05 -6.72012e-05 0.0132186)
(-0.000198123 -6.54816e-05 0.0132965)
(-0.000317983 -6.18245e-05 0.0134373)
(-0.000417162 -5.58106e-05 0.013585)
(-0.000479275 -4.71009e-05 0.0135807)
(0.000463458 -0.000137847 0.0135493)
(0.000404703 -0.000163906 0.0136069)
(0.000309259 -0.000181973 0.0134924)
(0.000192953 -0.000192953 0.0133681)
(6.54816e-05 -0.000198123 0.0132965)
(-6.54816e-05 -0.000198123 0.0132965)
(-0.000192953 -0.000192953 0.0133681)
(-0.000309259 -0.000181973 0.0134924)
(-0.000404703 -0.000163906 0.0136069)
(-0.000463458 -0.000137847 0.0135493)
(0.000430858 -0.000216935 0.0134528)
(0.000378474 -0.000260316 0.013618)
(0.000290762 -0.000290762 0.013577)
(0.000181973 -0.000309259 0.0134924)
(6.18245e-05 -0.000317983 0.0134373)
(-6.18245e-05 -0.000317983 0.0134373)
(-0.000181973 -0.000309259 0.0134924)
(-0.000290762 -0.000290762 0.013577)
(-0.000378474 -0.000260316 0.013618)
(-0.000430858 -0.000216935 0.0134528)
(0.000381427 -0.000273989 0.0132199)
(0.000335732 -0.000335732 0.0135392)
(0.000260316 -0.000378474 0.013618)
(0.000163906 -0.000404703 0.0136069)
(5.58106e-05 -0.000417162 0.013585)
(-5.58106e-05 -0.000417162 0.013585)
(-0.000163906 -0.000404703 0.0136069)
(-0.000260316 -0.000378474 0.013618)
(-0.000335732 -0.000335732 0.0135392)
(-0.000381427 -0.000273989 0.0132199)
(0.000313373 -0.000313373 0.0127525)
(0.000273989 -0.000381427 0.0132199)
(0.000216935 -0.000430858 0.0134528)
(0.000137847 -0.000463458 0.0135493)
(4.71009e-05 -0.000479275 0.0135807)
(-4.71009e-05 -0.000479275 0.0135807)
(-0.000137847 -0.000463458 0.0135493)
(-0.000216935 -0.000430858 0.0134528)
(-0.000273989 -0.000381427 0.0132199)
(-0.000313373 -0.000313373 0.0127525)
(0.000158208 0.000158208 0.01266)
(0.000141627 0.000197485 0.0132335)
(0.000115986 0.00022873 0.0135525)
(7.51279e-05 0.000250617 0.0137075)
(2.59328e-05 0.000261514 0.013768)
(-2.59328e-05 0.000261514 0.013768)
(-7.51279e-05 0.000250617 0.0137075)
(-0.000115986 0.00022873 0.0135525)
(-0.000141627 0.000197485 0.0132335)
(-0.000158208 0.000158208 0.01266)
(0.000197485 0.000141627 0.0132335)
(0.000181601 0.000181601 0.01369)
(0.000146134 0.000211863 0.0138685)
(9.418e-05 0.000231918 0.013921)
(3.24407e-05 0.000241831 0.0139298)
(-3.24407e-05 0.000241831 0.0139298)
(-9.418e-05 0.000231918 0.013921)
(-0.000146134 0.000211863 0.0138685)
(-0.000181601 0.000181601 0.01369)
(-0.000197485 0.000141627 0.0132335)
(0.00022873 0.000115986 0.0135525)
(0.000211863 0.000146134 0.0138685)
(0.000169508 0.000169508 0.0139308)
(0.000108847 0.000184887 0.0139097)
(3.7443e-05 0.000192458 0.0138846)
(-3.74429e-05 0.000192458 0.0138846)
(-0.000108847 0.000184887 0.0139097)
(-0.000169508 0.000169508 0.0139308)
(-0.000211863 0.000146134 0.0138685)
(-0.00022873 0.000115986 0.0135525)
(0.000250617 7.51279e-05 0.0137075)
(0.000231918 9.418e-05 0.013921)
(0.000184887 0.000108847 0.0139097)
(0.000118457 0.000118457 0.0138473)
(4.0714e-05 0.000123168 0.0138048)
(-4.0714e-05 0.000123168 0.0138048)
(-0.000118457 0.000118457 0.0138473)
(-0.000184887 0.000108847 0.0139097)
(-0.000231918 9.418e-05 0.013921)
(-0.000250617 7.51279e-05 0.0137075)
(0.000261514 2.59328e-05 0.013768)
(0.000241831 3.24407e-05 0.0139298)
(0.000192458 3.7443e-05 0.0138846)
(0.000123168 4.0714e-05 0.0138048)
(4.23132e-05 4.23132e-05 0.0137556)
(-4.23132e-05 4.23132e-05 0.0137556)
(-0.000123168 4.0714e-05 0.0138048)
(-0.000192458 3.7443e-05 0.0138846)
(-0.000241831 3.24407e-05 0.0139298)
(-0.000261514 2.59328e-05 0.013768)
(0.000261514 -2.59328e-05 0.013768)
(0.000241831 -3.24407e-05 0.0139298)
(0.000192458 -3.74429e-05 0.0138846)
(0.000123168 -4.0714e-05 0.0138048)
(4.23132e-05 -4.23132e-05 0.0137556)
(-4.23132e-05 -4.23132e-05 0.0137556)
(-0.000123168 -4.0714e-05 0.0138048)
(-0.000192458 -3.74429e-05 0.0138846)
(-0.000241831 -3.24407e-05 0.0139298)
(-0.000261514 -2.59328e-05 0.013768)
(0.000250617 -7.51279e-05 0.0137075)
(0.000231918 -9.418e-05 0.013921)
(0.000184887 -0.000108847 0.0139097)
(0.000118457 -0.000118457 0.0138473)
(4.0714e-05 -0.000123168 0.0138048)
(-4.0714e-05 -0.000123168 0.0138048)
(-0.000118457 -0.000118457 0.0138473)
(-0.000184887 -0.000108847 0.0139097)
(-0.000231918 -9.418e-05 0.013921)
(-0.000250617 -7.51279e-05 0.0137075)
(0.00022873 -0.000115986 0.0135525)
(0.000211863 -0.000146134 0.0138685)
(0.000169508 -0.000169508 0.0139308)
(0.000108847 -0.000184887 0.0139097)
(3.7443e-05 -0.000192458 0.0138846)
(-3.74429e-05 -0.000192458 0.0138846)
(-0.000108847 -0.000184887 0.0139097)
(-0.000169508 -0.000169508 0.0139308)
(-0.000211863 -0.000146134 0.0138685)
(-0.00022873 -0.000115986 0.0135525)
(0.000197485 -0.000141627 0.0132335)
(0.000181601 -0.000181601 0.01369)
(0.000146134 -0.000211863 0.0138685)
(9.418e-05 -0.000231918 0.013921)
(3.24407e-05 -0.000241831 0.0139298)
(-3.24407e-05 -0.000241831 0.0139298)
(-9.418e-05 -0.000231918 0.013921)
(-0.000146134 -0.000211863 0.0138685)
(-0.000181601 -0.000181601 0.01369)
(-0.000197485 -0.000141627 0.0132335)
(0.000158208 -0.000158208 0.01266)
(0.000141627 -0.000197485 0.0132335)
(0.000115986 -0.00022873 0.0135525)
(7.51279e-05 -0.000250617 0.0137075)
(2.59328e-05 -0.000261514 0.013768)
(-2.59328e-05 -0.000261514 0.013768)
(-7.51279e-05 -0.000250617 0.0137075)
(-0.000115986 -0.00022873 0.0135525)
(-0.000141627 -0.000197485 0.0132335)
(-0.000158208 -0.000158208 0.01266)
(6.39784e-05 6.39784e-05 0.0125911)
(6.0118e-05 8.46214e-05 0.0132014)
(5.18361e-05 0.000102247 0.0135565)
(3.45439e-05 0.000115308 0.0137391)
(1.21023e-05 0.000121987 0.0138143)
(-1.21023e-05 0.000121987 0.0138143)
(-3.45439e-05 0.000115308 0.0137391)
(-5.18361e-05 0.000102247 0.0135565)
(-6.0118e-05 8.46214e-05 0.0132014)
(-6.39784e-05 6.39784e-05 0.0125911)
(8.46214e-05 6.0118e-05 0.0132014)
(8.3098e-05 8.3098e-05 0.0137197)
(7.04313e-05 0.000102008 0.0139511)
(4.6845e-05 0.000115384 0.0140416)
(1.63858e-05 0.000122222 0.0140701)
(-1.63858e-05 0.000122222 0.0140701)
(-4.6845e-05 0.000115384 0.0140416)
(-7.04313e-05 0.000102008 0.0139511)
(-8.3098e-05 8.3098e-05 0.0137197)
(-8.46214e-05 6.0118e-05 0.0132014)
(0.000102247 5.18361e-05 0.0135565)
(0.000102008 7.04313e-05 0.0139511)
(8.61143e-05 8.61143e-05 0.0140778)
(5.7128e-05 9.70819e-05 0.014101)
(1.99581e-05 0.000102658 0.0140983)
(-1.99581e-05 0.000102658 0.0140983)
(-5.7128e-05 9.70819e-05 0.014101)
(-8.61143e-05 8.61143e-05 0.0140778)
(-0.000102008 7.04313e-05 0.0139511)
(-0.000102247 5.18361e-05 0.0135565)
(0.000115308 3.45439e-05 0.0137391)
(0.000115384 4.6845e-05 0.0140416)
(9.70819e-05 5.7128e-05 0.014101)
(6.42529e-05 6.42529e-05 0.0140863)
(2.24227e-05 6.78516e-05 0.0140675)
(-2.24227e-05 6.78516e-05 0.0140675)
(-6.42529e-05 6.42529e-05 0.0140863)
(-9.70819e-05 5.7128e-05 0.014101)
(-0.000115384 4.6845e-05 0.0140416)
(-0.000115308 3.45439e-05 0.0137391)
(0.000121987 1.21023e-05 0.0138143)
(0.000122222 1.63858e-05 0.0140701)
(0.000102658 1.99581e-05 0.0140983)
(6.78516e-05 2.24227e-05 0.0140675)
(2.36628e-05 2.36628e-05 0.0140424)
(-2.36628e-05 2.36628e-05 0.0140424)
(-6.78516e-05 2.24227e-05 0.0140675)
(-0.000102658 1.99581e-05 0.0140983)
(-0.000122222 1.63858e-05 0.0140701)
(-0.000121987 1.21023e-05 0.0138143)
(0.000121987 -1.21023e-05 0.0138143)
(0.000122222 -1.63858e-05 0.0140701)
(0.000102658 -1.99581e-05 0.0140983)
(6.78516e-05 -2.24227e-05 0.0140675)
(2.36628e-05 -2.36628e-05 0.0140424)
(-2.36628e-05 -2.36628e-05 0.0140424)
(-6.78516e-05 -2.24227e-05 0.0140675)
(-0.000102658 -1.99581e-05 0.0140983)
(-0.000122222 -1.63858e-05 0.0140701)
(-0.000121987 -1.21023e-05 0.0138143)
(0.000115308 -3.45439e-05 0.0137391)
(0.000115384 -4.6845e-05 0.0140416)
(9.70819e-05 -5.7128e-05 0.014101)
(6.42529e-05 -6.42529e-05 0.0140863)
(2.24227e-05 -6.78516e-05 0.0140675)
(-2.24227e-05 -6.78516e-05 0.0140675)
(-6.42529e-05 -6.42529e-05 0.0140863)
(-9.70819e-05 -5.7128e-05 0.014101)
(-0.000115384 -4.6845e-05 0.0140416)
(-0.000115308 -3.45439e-05 0.0137391)
(0.000102247 -5.18361e-05 0.0135565)
(0.000102008 -7.04313e-05 0.0139511)
(8.61143e-05 -8.61143e-05 0.0140778)
(5.7128e-05 -9.70819e-05 0.014101)
(1.99581e-05 -0.000102658 0.0140983)
(-1.99581e-05 -0.000102658 0.0140983)
(-5.7128e-05 -9.70819e-05 0.014101)
(-8.61143e-05 -8.61143e-05 0.0140778)
(-0.000102008 -7.04313e-05 0.0139511)
(-0.000102247 -5.18361e-05 0.0135565)
(8.46214e-05 -6.0118e-05 0.0132014)
(8.3098e-05 -8.30979e-05 0.0137197)
(7.04313e-05 -0.000102008 0.0139511)
(4.6845e-05 -0.000115384 0.0140416)
(1.63858e-05 -0.000122222 0.0140701)
(-1.63858e-05 -0.000122222 0.0140701)
(-4.6845e-05 -0.000115384 0.0140416)
(-7.04313e-05 -0.000102008 0.0139511)
(-8.30979e-05 -8.30979e-05 0.0137197)
(-8.46214e-05 -6.0118e-05 0.0132014)
(6.39784e-05 -6.39784e-05 0.0125911)
(6.0118e-05 -8.46214e-05 0.0132014)
(5.18361e-05 -0.000102247 0.0135565)
(3.45439e-05 -0.000115308 0.0137391)
(1.21023e-05 -0.000121987 0.0138143)
(-1.21023e-05 -0.000121987 0.0138143)
(-3.45439e-05 -0.000115308 0.0137391)
(-5.18361e-05 -0.000102247 0.0135565)
(-6.0118e-05 -8.46214e-05 0.0132014)
(-6.39784e-05 -6.39784e-05 0.0125911)
(2.15696e-05 2.15696e-05 0.0125524)
(2.14696e-05 3.04646e-05 0.0131744)
(1.96267e-05 3.86547e-05 0.0135437)
(1.34824e-05 4.50728e-05 0.0137386)
(4.80458e-06 4.84402e-05 0.0138208)
(-4.80457e-06 4.84402e-05 0.0138208)
(-1.34824e-05 4.50728e-05 0.0137386)
(-1.96267e-05 3.86547e-05 0.0135437)
(-2.14696e-05 3.04646e-05 0.0131744)
(-2.15696e-05 2.15696e-05 0.0125524)
(3.04646e-05 2.14696e-05 0.0131744)
(3.236e-05 3.236e-05 0.0137182)
(2.90862e-05 4.20811e-05 0.0139757)
(2.001e-05 4.93768e-05 0.0140867)
(7.11684e-06 5.32176e-05 0.0141264)
(-7.11683e-06 5.32176e-05 0.0141264)
(-2.001e-05 4.93768e-05 0.0140867)
(-2.90862e-05 4.20811e-05 0.0139757)
(-3.236e-05 3.236e-05 0.0137182)
(-3.04646e-05 2.14696e-05 0.0131744)
(3.86547e-05 1.96267e-05 0.0135437)
(4.20811e-05 2.90862e-05 0.0139757)
(3.76984e-05 3.76984e-05 0.0141379)
(2.58817e-05 4.40535e-05 0.0141879)
(9.18923e-06 4.73729e-05 0.0141992)
(-9.18922e-06 4.73729e-05 0.0141992)
(-2.58817e-05 4.40535e-05 0.0141879)
(-3.76984e-05 3.76984e-05 0.0141379)
(-4.20811e-05 2.90862e-05 0.0139757)
(-3.86547e-05 1.96267e-05 0.0135437)
(4.50728e-05 1.34824e-05 0.0137386)
(4.93768e-05 2.001e-05 0.0140867)
(4.40535e-05 2.58817e-05 0.0141879)
(3.01564e-05 3.01564e-05 0.0142035)
(1.0689e-05 3.23706e-05 0.0142005)
(-1.0689e-05 3.23706e-05 0.0142005)
(-3.01564e-05 3.01564e-05 0.0142035)
(-4.40535e-05 2.58817e-05 0.0141879)
(-4.93768e-05 2.001e-05 0.0140867)
(-4.50728e-05 1.34824e-05 0.0137386)
(4.84402e-05 4.80457e-06 0.0138208)
(5.32176e-05 7.11684e-06 0.0141264)
(4.7373e-05 9.18923e-06 0.0141992)
(3.23706e-05 1.0689e-05 0.0142005)
(1.14625e-05 1.14625e-05 0.0141918)
(-1.14625e-05 1.14625e-05 0.0141918)
(-3.23706e-05 1.0689e-05 0.0142005)
(-4.73729e-05 9.18923e-06 0.0141992)
(-5.32176e-05 7.11684e-06 0.0141264)
(-4.84402e-05 4.80457e-06 0.0138208)
(4.84402e-05 -4.80457e-06 0.0138208)
(5.32176e-05 -7.11683e-06 0.0141264)
(4.7373e-05 -9.18922e-06 0.0141992)
(3.23706e-05 -1.0689e-05 0.0142005)
(1.14625e-05 -1.14625e-05 0.0141918)
(-1.14625e-05 -1.14625e-05 0.0141918)
(-3.23706e-05 -1.0689e-05 0.0142005)
(-4.73729e-05 -9.18922e-06 0.0141992)
(-5.32176e-05 -7.11683e-06 0.0141264)
(-4.84402e-05 -4.80457e-06 0.0138208)
(4.50728e-05 -1.34824e-05 0.0137386)
(4.93768e-05 -2.001e-05 0.0140867)
(4.40535e-05 -2.58817e-05 0.0141879)
(3.01564e-05 -3.01564e-05 0.0142035)
(1.0689e-05 -3.23706e-05 0.0142005)
(-1.0689e-05 -3.23706e-05 0.0142005)
(-3.01564e-05 -3.01564e-05 0.0142035)
(-4.40535e-05 -2.58817e-05 0.0141879)
(-4.93768e-05 -2.001e-05 0.0140867)
(-4.50728e-05 -1.34824e-05 0.0137386)
(3.86547e-05 -1.96267e-05 0.0135437)
(4.20811e-05 -2.90862e-05 0.0139757)
(3.76984e-05 -3.76984e-05 0.0141379)
(2.58817e-05 -4.40535e-05 0.0141879)
(9.18922e-06 -4.73729e-05 0.0141992)
(-9.18922e-06 -4.73729e-05 0.0141992)
(-2.58817e-05 -4.40535e-05 0.0141879)
(-3.76984e-05 -3.76984e-05 0.0141379)
(-4.2081e-05 -2.90862e-05 0.0139757)
(-3.86547e-05 -1.96267e-05 0.0135437)
(3.04646e-05 -2.14696e-05 0.0131744)
(3.236e-05 -3.236e-05 0.0137182)
(2.90862e-05 -4.2081e-05 0.0139757)
(2.001e-05 -4.93768e-05 0.0140867)
(7.11683e-06 -5.32176e-05 0.0141264)
(-7.11684e-06 -5.32176e-05 0.0141264)
(-2.001e-05 -4.93768e-05 0.0140867)
(-2.90862e-05 -4.20811e-05 0.0139757)
(-3.236e-05 -3.236e-05 0.0137182)
(-3.04646e-05 -2.14696e-05 0.0131744)
(2.15696e-05 -2.15696e-05 0.0125524)
(2.14696e-05 -3.04646e-05 0.0131744)
(1.96267e-05 -3.86547e-05 0.0135437)
(1.34824e-05 -4.50728e-05 0.0137386)
(4.80457e-06 -4.84401e-05 0.0138208)
(-4.80457e-06 -4.84401e-05 0.0138208)
(-1.34824e-05 -4.50728e-05 0.0137386)
(-1.96267e-05 -3.86547e-05 0.0135437)
(-2.14696e-05 -3.04646e-05 0.0131744)
(-2.15696e-05 -2.15696e-05 0.0125524)
(6.10048e-06 6.10048e-06 0.0125329)
(6.62204e-06 9.44702e-06 0.0131569)
(6.54153e-06 1.27437e-05 0.0135307)
(4.66526e-06 1.54637e-05 0.0137301)
(1.69818e-06 1.69238e-05 0.0138151)
(-1.69818e-06 1.69238e-05 0.0138151)
(-4.66526e-06 1.54637e-05 0.0137301)
(-6.54153e-06 1.27437e-05 0.0135307)
(-6.62204e-06 9.44701e-06 0.0131569)
(-6.10048e-06 6.10048e-06 0.0125329)
(9.44702e-06 6.62204e-06 0.0131569)
(1.1114e-05 1.1114e-05 0.0137094)
(1.06934e-05 1.54115e-05 0.0139777)
(7.63129e-06 1.87963e-05 0.0140982)
(2.7636e-06 2.06206e-05 0.0141432)
(-2.76359e-06 2.06206e-05 0.0141432)
(-7.63129e-06 1.87963e-05 0.0140982)
(-1.06934e-05 1.54115e-05 0.0139777)
(-1.1114e-05 1.1114e-05 0.0137094)
(-9.44701e-06 6.62204e-06 0.0131569)
(1.27437e-05 6.54153e-06 0.0135307)
(1.54115e-05 1.06934e-05 0.0139777)
(1.47178e-05 1.47178e-05 0.0141567)
(1.04629e-05 1.78192e-05 0.0142203)
(3.77571e-06 1.94739e-05 0.0142391)
(-3.7757e-06 1.94739e-05 0.0142391)
(-1.04629e-05 1.78192e-05 0.0142203)
(-1.47178e-05 1.47178e-05 0.0141567)
(-1.54115e-05 1.06934e-05 0.0139777)
(-1.27437e-05 6.54154e-06 0.0135307)
(1.54637e-05 4.66526e-06 0.0137301)
(1.87963e-05 7.63129e-06 0.0140982)
(1.78192e-05 1.04629e-05 0.0142203)
(1.26099e-05 1.26099e-05 0.0142523)
(4.5378e-06 1.37446e-05 0.014258)
(-4.53779e-06 1.37446e-05 0.014258)
(-1.26099e-05 1.26099e-05 0.0142523)
(-1.78192e-05 1.04629e-05 0.0142203)
(-1.87963e-05 7.63129e-06 0.0140982)
(-1.54637e-05 4.66526e-06 0.0137301)
(1.69238e-05 1.69818e-06 0.0138151)
(2.06206e-05 2.7636e-06 0.0141432)
(1.94739e-05 3.77571e-06 0.0142391)
(1.37445e-05 4.5378e-06 0.014258)
(4.93872e-06 4.93872e-06 0.0142586)
(-4.93871e-06 4.93872e-06 0.0142586)
(-1.37445e-05 4.5378e-06 0.014258)
(-1.94739e-05 3.77571e-06 0.0142391)
(-2.06206e-05 2.7636e-06 0.0141432)
(-1.69238e-05 1.69818e-06 0.0138151)
(1.69238e-05 -1.69818e-06 0.0138151)
(2.06206e-05 -2.76359e-06 0.0141432)
(1.94739e-05 -3.7757e-06 0.0142391)
(1.37445e-05 -4.53779e-06 0.014258)
(4.93872e-06 -4.93871e-06 0.0142586)
(-4.93871e-06 -4.93871e-06 0.0142586)
(-1.37445e-05 -4.53779e-06 0.014258)
(-1.94739e-05 -3.7757e-06 0.0142391)
(-2.06206e-05 -2.76359e-06 0.0141432)
(-1.69238e-05 -1.69818e-06 0.0138151)
(1.54637e-05 -4.66526e-06 0.0137301)
(1.87963e-05 -7.63129e-06 0.0140982)
(1.78192e-05 -1.04629e-05 0.0142203)
(1.26099e-05 -1.26099e-05 0.0142523)
(4.5378e-06 -1.37445e-05 0.014258)
(-4.53779e-06 -1.37445e-05 0.014258)
(-1.26099e-05 -1.26099e-05 0.0142523)
(-1.78192e-05 -1.04629e-05 0.0142203)
(-1.87963e-05 -7.63128e-06 0.0140982)
(-1.54637e-05 -4.66525e-06 0.0137301)
(1.27437e-05 -6.54153e-06 0.0135307)
(1.54115e-05 -1.06934e-05 0.0139777)
(1.47178e-05 -1.47178e-05 0.0141567)
(1.04629e-05 -1.78192e-05 0.0142203)
(3.77571e-06 -1.94739e-05 0.0142391)
(-3.7757e-06 -1.94739e-05 0.0142391)
(-1.04629e-05 -1.78192e-05 0.0142203)
(-1.47178e-05 -1.47178e-05 0.0141567)
(-1.54115e-05 -1.06934e-05 0.0139777)
(-1.27437e-05 -6.54152e-06 0.0135307)
(9.44701e-06 -6.62204e-06 0.0131569)
(1.1114e-05 -1.1114e-05 0.0137094)
(1.06934e-05 -1.54115e-05 0.0139777)
(7.63129e-06 -1.87963e-05 0.0140982)
(2.7636e-06 -2.06206e-05 0.0141432)
(-2.76359e-06 -2.06206e-05 0.0141432)
(-7.63128e-06 -1.87963e-05 0.0140982)
(-1.06934e-05 -1.54115e-05 0.0139777)
(-1.1114e-05 -1.1114e-05 0.0137094)
(-9.44701e-06 -6.62203e-06 0.0131569)
(6.10048e-06 -6.10048e-06 0.0125329)
(6.62204e-06 -9.44701e-06 0.0131569)
(6.54153e-06 -1.27437e-05 0.0135307)
(4.66526e-06 -1.54637e-05 0.0137301)
(1.69818e-06 -1.69238e-05 0.0138151)
(-1.69818e-06 -1.69238e-05 0.0138151)