/*--------------------------------*- C++ -*----------------------------------*\
| =========                 |                                                 |
| \\      /  F ield         | OpenFOAM: The Open Source CFD Toolbox           |
|  \\    /   O peration     | Version:  2412                                  |
|   \\  /    A nd           | Website:  www.openfoam.com                      |
|    \\/     M anipulation  |                                                 |
\*---------------------------------------------------------------------------*/
FoamFile
{
    version     2.0;
    format      ascii;
    arch        "LSB;label=32;scalar=64";
    class       volVectorField;
    location    "2.8";
    object      U;
}
// * * * * * * * * * * * * * * * * * * * * * * * * * * * * * * * * * * * * * //

dimensions      [0 1 -1 0 0 0 0];

internalField   nonuniform List<vector> 
15000
(
(0.00107548 0.00107548 0.0106195)
(0.000787729 0.000995549 0.0105801)
(0.000534203 0.000972239 0.0105359)
(0.000313182 0.000948656 0.0105017)
(0.000102669 0.000938189 0.010484)
(-0.000102669 0.000938189 0.010484)
(-0.000313182 0.000948656 0.0105017)
(-0.000534203 0.000972239 0.0105359)
(-0.000787729 0.000995549 0.0105801)
(-0.00107548 0.00107548 0.0106195)
(0.000995549 0.000787729 0.0105801)
(0.00073862 0.00073862 0.0105115)
(0.00050545 0.00070714 0.0104512)
(0.000294914 0.000685298 0.01041)
(9.67348e-05 0.00067497 0.0103896)
(-9.67348e-05 0.00067497 0.0103896)
(-0.000294914 0.000685298 0.01041)
(-0.00050545 0.00070714 0.0104512)
(-0.00073862 0.00073862 0.0105115)
(-0.000995549 0.000787729 0.0105801)
(0.000972239 0.000534203 0.0105359)
(0.00070714 0.00050545 0.0104512)
(0.000480921 0.000480921 0.0103853)
(0.000279121 0.000463323 0.0103424)
(9.13963e-05 0.000454585 0.0103215)
(-9.13963e-05 0.000454585 0.0103215)
(-0.000279121 0.000463323 0.0103424)
(-0.000480921 0.000480921 0.0103853)
(-0.00070714 0.00050545 0.0104512)
(-0.000972239 0.000534203 0.0105359)
(0.000948656 0.000313182 0.0105017)
(0.000685298 0.000294914 0.01041)
(0.000463323 0.000279121 0.0103424)
(0.000267734 0.000267734 0.0102994)
(8.75156e-05 0.000262009 0.0102787)
(-8.75155e-05 0.000262009 0.0102787)
(-0.000267734 0.000267734 0.0102994)
(-0.000463323 0.000279121 0.0103424)
(-0.000685298 0.000294914 0.01041)
(-0.000948656 0.000313182 0.0105017)
(0.000938189 0.000102669 0.010484)
(0.00067497 9.67348e-05 0.0103896)
(0.000454585 9.13963e-05 0.0103215)
(0.000262009 8.75156e-05 0.0102787)
(8.55554e-05 8.55554e-05 0.0102582)
(-8.55554e-05 8.55554e-05 0.0102582)
(-0.000262009 8.75156e-05 0.0102787)
(-0.000454585 9.13963e-05 0.0103215)
(-0.00067497 9.67348e-05 0.0103896)
(-0.000938189 0.000102669 0.010484)
(0.000938189 -0.000102669 0.010484)
(0.00067497 -9.67348e-05 0.0103896)
(0.000454585 -9.13963e-05 0.0103215)
(0.000262009 -8.75155e-05 0.0102787)
(8.55554e-05 -8.55554e-05 0.0102582)
(-8.55554e-05 -8.55554e-05 0.0102582)
(-0.000262009 -8.75155e-05 0.0102787)
(-0.000454585 -9.13963e-05 0.0103215)
(-0.00067497 -9.67348e-05 0.0103896)
(-0.000938189 -0.000102669 0.010484)
(0.000948656 -0.000313182 0.0105017)
(0.000685298 -0.000294914 0.01041)
(0.000463323 -0.000279121 0.0103424)
(0.000267734 -0.000267734 0.0102994)
(8.75156e-05 -0.000262009 0.0102787)
(-8.75155e-05 -0.000262009 0.0102787)
(-0.000267734 -0.000267734 0.0102994)
(-0.000463323 -0.000279121 0.0103424)
(-0.000685298 -0.000294914 0.01041)
(-0.000948656 -0.000313182 0.0105017)
(0.000972239 -0.000534203 0.0105359)
(0.00070714 -0.00050545 0.0104512)
(0.000480921 -0.000480921 0.0103853)
(0.000279121 -0.000463323 0.0103424)
(9.13963e-05 -0.000454585 0.0103215)
(-9.13963e-05 -0.000454585 0.0103215)
(-0.000279121 -0.000463323 0.0103424)
(-0.000480921 -0.000480921 0.0103853)
(-0.00070714 -0.00050545 0.0104512)
(-0.000972239 -0.000534203 0.0105359)
(0.000995549 -0.000787729 0.0105801)
(0.00073862 -0.00073862 0.0105115)
(0.00050545 -0.00070714 0.0104512)
(0.000294914 -0.000685298 0.01041)
(9.67348e-05 -0.00067497 0.0103896)
(-9.67348e-05 -0.00067497 0.0103896)
(-0.000294914 -0.000685298 0.01041)
(-0.00050545 -0.00070714 0.0104512)
(-0.00073862 -0.00073862 0.0105115)
(-0.000995549 -0.000787729 0.0105801)
(0.00107548 -0.00107548 0.0106195)
(0.000787729 -0.000995549 0.0105801)
(0.000534203 -0.000972239 0.0105359)
(0.000313182 -0.000948656 0.0105017)
(0.000102669 -0.000938189 0.010484)
(-0.000102669 -0.000938189 0.010484)
(-0.000313182 -0.000948656 0.0105017)
(-0.000534203 -0.000972239 0.0105359)
(-0.000787729 -0.000995549 0.0105801)
(-0.00107548 -0.00107548 0.0106195)
(0.000453014 0.000453014 0.0122307)
(0.000362221 0.000478929 0.0121178)
(0.000260179 0.000503025 0.0120026)
(0.000157827 0.000516795 0.0119166)
(5.25201e-05 0.000524705 0.0118725)
(-5.252e-05 0.000524705 0.0118725)
(-0.000157827 0.000516795 0.0119166)
(-0.000260179 0.000503025 0.0120026)
(-0.000362221 0.000478929 0.0121178)
(-0.000453014 0.000453014 0.0122307)
(0.000478929 0.000362221 0.0121178)
(0.000384111 0.000384111 0.0119368)
(0.000278744 0.000401483 0.011784)
(0.000169264 0.000412242 0.0116804)
(5.66256e-05 0.000418091 0.011629)
(-5.66256e-05 0.000418091 0.011629)
(-0.000169264 0.000412242 0.0116804)
(-0.000278744 0.000401483 0.011784)
(-0.000384111 0.000384111 0.0119368)
(-0.000478929 0.000362221 0.0121178)
(0.000503025 0.000260179 0.0120026)
(0.000401483 0.000278744 0.011784)
(0.000292096 0.000292096 0.0116159)
(0.000177453 0.000300324 0.0115062)
(5.94765e-05 0.000304562 0.0114525)
(-5.94764e-05 0.000304562 0.0114525)
(-0.000177453 0.000300324 0.0115062)
(-0.000292096 0.000292096 0.0116159)
(-0.000401483 0.000278744 0.011784)
(-0.000503025 0.000260179 0.0120026)
(0.000516795 0.000157827 0.0119166)
(0.000412242 0.000169264 0.0116804)
(0.000300324 0.000177453 0.0115062)
(0.000182585 0.000182585 0.0113945)
(6.12568e-05 0.000185194 0.0113404)
(-6.12568e-05 0.000185194 0.0113404)
(-0.000182585 0.000182585 0.0113945)
(-0.000300324 0.000177453 0.0115062)
(-0.000412242 0.000169264 0.0116804)
(-0.000516795 0.000157827 0.0119166)
(0.000524705 5.252e-05 0.0118725)
(0.000418091 5.66256e-05 0.011629)
(0.000304562 5.94765e-05 0.0114525)
(0.000185194 6.12568e-05 0.0113404)
(6.21526e-05 6.21526e-05 0.0112861)
(-6.21526e-05 6.21526e-05 0.0112861)
(-0.000185194 6.12568e-05 0.0113404)
(-0.000304562 5.94765e-05 0.0114525)
(-0.000418091 5.66257e-05 0.011629)
(-0.000524705 5.25201e-05 0.0118725)
(0.000524705 -5.25201e-05 0.0118725)
(0.000418091 -5.66256e-05 0.011629)
(0.000304562 -5.94764e-05 0.0114525)
(0.000185194 -6.12568e-05 0.0113404)
(6.21526e-05 -6.21526e-05 0.0112861)
(-6.21526e-05 -6.21526e-05 0.0112861)
(-0.000185194 -6.12568e-05 0.0113404)
(-0.000304562 -5.94764e-05 0.0114525)
(-0.000418091 -5.66256e-05 0.011629)
(-0.000524705 -5.252e-05 0.0118725)
(0.000516795 -0.000157827 0.0119166)
(0.000412242 -0.000169264 0.0116804)
(0.000300324 -0.000177453 0.0115062)
(0.000182585 -0.000182585 0.0113945)
(6.12568e-05 -0.000185194 0.0113404)
(-6.12568e-05 -0.000185194 0.0113404)
(-0.000182585 -0.000182585 0.0113945)
(-0.000300324 -0.000177453 0.0115062)
(-0.000412242 -0.000169264 0.0116804)
(-0.000516795 -0.000157827 0.0119166)
(0.000503025 -0.000260179 0.0120026)
(0.000401483 -0.000278744 0.011784)
(0.000292096 -0.000292096 0.0116159)
(0.000177453 -0.000300324 0.0115062)
(5.94765e-05 -0.000304562 0.0114525)
(-5.94764e-05 -0.000304562 0.0114525)
(-0.000177453 -0.000300324 0.0115062)
(-0.000292096 -0.000292096 0.0116159)
(-0.000401483 -0.000278744 0.011784)
(-0.000503025 -0.000260179 0.0120026)
(0.000478929 -0.000362221 0.0121178)
(0.000384111 -0.000384111 0.0119368)
(0.000278744 -0.000401483 0.011784)
(0.000169264 -0.000412242 0.0116804)
(5.66257e-05 -0.000418091 0.011629)
(-5.66256e-05 -0.000418091 0.011629)
(-0.000169264 -0.000412242 0.0116804)
(-0.000278744 -0.000401483 0.011784)
(-0.000384112 -0.000384112 0.0119368)
(-0.000478929 -0.000362221 0.0121178)
(0.000453014 -0.000453014 0.0122307)
(0.000362221 -0.000478929 0.0121178)
(0.000260179 -0.000503025 0.0120026)
(0.000157827 -0.000516795 0.0119166)
(5.25201e-05 -0.000524705 0.0118725)
(-5.252e-05 -0.000524705 0.0118725)
(-0.000157827 -0.000516795 0.0119166)
(-0.000260179 -0.000503025 0.0120026)
(-0.000362221 -0.000478929 0.0121178)
(-0.000453014 -0.000453014 0.0122307)
(0.000248762 0.000248762 0.0120764)
(0.000209544 0.000275829 0.0120946)
(0.000158334 0.000298276 0.012069)
(9.87235e-05 0.000312391 0.01204)
(3.33196e-05 0.000319857 0.0120236)
(-3.33196e-05 0.000319857 0.0120236)
(-9.87235e-05 0.000312391 0.01204)
(-0.000158334 0.000298276 0.012069)
(-0.000209544 0.000275829 0.0120946)
(-0.000248762 0.000248762 0.0120764)
(0.000275829 0.000209544 0.0120946)
(0.00023572 0.00023572 0.0120454)
(0.000178998 0.000254604 0.0119843)
(0.000111581 0.000266331 0.0119387)
(3.77863e-05 0.000272274 0.0119153)
(-3.77863e-05 0.000272274 0.0119153)
(-0.000111581 0.000266331 0.0119387)
(-0.000178998 0.000254604 0.0119843)
(-0.00023572 0.00023572 0.0120454)
(-0.000275829 0.000209544 0.0120946)
(0.000298276 0.000158334 0.012069)
(0.000254604 0.000178998 0.0119843)
(0.000193223 0.000193223 0.0119076)
(0.000120212 0.000201774 0.0118548)
(4.0717e-05 0.000205932 0.0118284)
(-4.0717e-05 0.000205932 0.0118284)
(-0.000120212 0.000201774 0.0118548)
(-0.000193223 0.000193223 0.0119076)
(-0.000254604 0.000178998 0.0119843)
(-0.000298276 0.000158334 0.012069)
(0.000312391 9.87235e-05 0.01204)
(0.000266331 0.000111581 0.0119387)
(0.000201774 0.000120212 0.0118548)
(0.000125311 0.000125311 0.0117987)
(4.24253e-05 0.000127737 0.0117707)
(-4.24253e-05 0.000127737 0.0117707)
(-0.000125311 0.000125311 0.0117987)
(-0.000201774 0.000120212 0.0118548)
(-0.000266331 0.000111581 0.0119387)
(-0.000312391 9.87235e-05 0.01204)
(0.000319857 3.33196e-05 0.0120236)
(0.000272274 3.77863e-05 0.0119153)
(0.000205932 4.0717e-05 0.0118284)
(0.000127737 4.24253e-05 0.0117707)
(4.32279e-05 4.32279e-05 0.0117421)
(-4.32278e-05 4.32279e-05 0.0117421)
(-0.000127737 4.24253e-05 0.0117707)
(-0.000205931 4.0717e-05 0.0118284)
(-0.000272274 3.77863e-05 0.0119153)
(-0.000319857 3.33196e-05 0.0120236)
(0.000319857 -3.33196e-05 0.0120236)
(0.000272274 -3.77863e-05 0.0119153)
(0.000205932 -4.0717e-05 0.0118284)
(0.000127737 -4.24253e-05 0.0117707)
(4.32279e-05 -4.32278e-05 0.0117421)
(-4.32279e-05 -4.32278e-05 0.0117421)
(-0.000127737 -4.24253e-05 0.0117707)
(-0.000205931 -4.0717e-05 0.0118284)
(-0.000272274 -3.77863e-05 0.0119153)
(-0.000319857 -3.33196e-05 0.0120236)
(0.000312391 -9.87235e-05 0.01204)
(0.000266331 -0.000111581 0.0119387)
(0.000201774 -0.000120212 0.0118548)
(0.000125311 -0.000125311 0.0117987)
(4.24253e-05 -0.000127737 0.0117707)
(-4.24253e-05 -0.000127737 0.0117707)
(-0.000125311 -0.000125311 0.0117987)
(-0.000201774 -0.000120212 0.0118548)
(-0.000266331 -0.000111581 0.0119387)
(-0.000312391 -9.87235e-05 0.01204)
(0.000298276 -0.000158334 0.012069)
(0.000254604 -0.000178998 0.0119843)
(0.000193223 -0.000193223 0.0119076)
(0.000120212 -0.000201774 0.0118548)
(4.0717e-05 -0.000205931 0.0118284)
(-4.0717e-05 -0.000205931 0.0118284)
(-0.000120212 -0.000201774 0.0118548)
(-0.000193223 -0.000193223 0.0119076)
(-0.000254604 -0.000178998 0.0119843)
(-0.000298276 -0.000158334 0.012069)
(0.000275829 -0.000209544 0.0120946)
(0.00023572 -0.00023572 0.0120454)
(0.000178998 -0.000254604 0.0119843)
(0.000111581 -0.000266331 0.0119387)
(3.77863e-05 -0.000272274 0.0119153)
(-3.77863e-05 -0.000272274 0.0119153)
(-0.000111581 -0.000266331 0.0119387)
(-0.000178998 -0.000254604 0.0119843)
(-0.000235721 -0.000235721 0.0120454)
(-0.000275829 -0.000209544 0.0120946)
(0.000248762 -0.000248762 0.0120764)
(0.000209544 -0.000275829 0.0120946)
(0.000158334 -0.000298276 0.012069)
(9.87235e-05 -0.000312391 0.01204)
(3.33196e-05 -0.000319857 0.0120236)
(-3.33196e-05 -0.000319857 0.0120236)
(-9.87236e-05 -0.000312391 0.01204)
(-0.000158334 -0.000298276 0.012069)
(-0.000209544 -0.000275829 0.0120946)
(-0.000248762 -0.000248762 0.0120764)
(8.17408e-05 8.17408e-05 0.0121382)
(7.39604e-05 0.000100646 0.0121961)
(5.9419e-05 0.000115405 0.0122007)
(3.82848e-05 0.000125451 0.0121919)
(1.3123e-05 0.000130719 0.0121854)
(-1.3123e-05 0.000130719 0.0121854)
(-3.82847e-05 0.000125451 0.0121919)
(-5.94189e-05 0.000115405 0.0122007)
(-7.39604e-05 0.000100646 0.0121961)
(-8.17408e-05 8.17408e-05 0.0121382)
(0.000100646 7.39604e-05 0.0121961)
(9.24658e-05 9.24658e-05 0.012195)
(7.4106e-05 0.000106442 0.0121691)
(4.77096e-05 0.000115675 0.0121462)
(1.64068e-05 0.000120399 0.0121339)
(-1.64068e-05 0.000120399 0.0121339)
(-4.77095e-05 0.000115675 0.0121462)
(-7.41059e-05 0.000106442 0.0121691)
(-9.24658e-05 9.24658e-05 0.012195)
(-0.000100646 7.39604e-05 0.0121961)
(0.000115405 5.9419e-05 0.0122007)
(0.000106442 7.4106e-05 0.0121691)
(8.51748e-05 8.51748e-05 0.0121301)
(5.47187e-05 9.23829e-05 0.0121011)
(1.88214e-05 9.60021e-05 0.0120863)
(-1.88213e-05 9.60021e-05 0.0120863)
(-5.47187e-05 9.23829e-05 0.0121011)
(-8.51748e-05 8.51748e-05 0.0121301)
(-0.000106442 7.41059e-05 0.0121691)
(-0.000115405 5.9419e-05 0.0122007)
(0.000125451 3.82847e-05 0.0121919)
(0.000115675 4.77096e-05 0.0121462)
(9.23829e-05 5.47187e-05 0.0121011)
(5.92564e-05 5.92564e-05 0.0120693)
(2.03763e-05 6.15146e-05 0.0120531)
(-2.03763e-05 6.15146e-05 0.0120531)
(-5.92564e-05 5.92564e-05 0.0120693)
(-9.23829e-05 5.47187e-05 0.0121011)
(-0.000115675 4.77096e-05 0.0121462)
(-0.000125451 3.82848e-05 0.0121919)
(0.000130719 1.3123e-05 0.0121854)
(0.000120399 1.64068e-05 0.0121339)
(9.60021e-05 1.88214e-05 0.0120863)
(6.15146e-05 2.03763e-05 0.0120531)
(2.1146e-05 2.1146e-05 0.0120362)
(-2.1146e-05 2.1146e-05 0.0120362)
(-6.15146e-05 2.03763e-05 0.0120531)
(-9.6002e-05 1.88213e-05 0.0120863)
(-0.000120399 1.64068e-05 0.0121339)
(-0.000130719 1.3123e-05 0.0121854)
(0.000130719 -1.3123e-05 0.0121854)
(0.000120399 -1.64068e-05 0.0121339)
(9.60021e-05 -1.88213e-05 0.0120863)
(6.15146e-05 -2.03763e-05 0.0120531)
(2.1146e-05 -2.1146e-05 0.0120362)
(-2.1146e-05 -2.1146e-05 0.0120362)
(-6.15146e-05 -2.03763e-05 0.0120531)
(-9.6002e-05 -1.88213e-05 0.0120863)
(-0.000120399 -1.64068e-05 0.0121339)
(-0.000130719 -1.31229e-05 0.0121854)
(0.000125451 -3.82847e-05 0.0121919)
(0.000115675 -4.77095e-05 0.0121462)
(9.2383e-05 -5.47187e-05 0.0121011)
(5.92564e-05 -5.92564e-05 0.0120693)
(2.03763e-05 -6.15146e-05 0.0120531)
(-2.03763e-05 -6.15146e-05 0.0120531)
(-5.92564e-05 -5.92564e-05 0.0120693)
(-9.23829e-05 -5.47187e-05 0.0121011)
(-0.000115675 -4.77095e-05 0.0121462)
(-0.000125451 -3.82848e-05 0.0121919)
(0.000115405 -5.94189e-05 0.0122007)
(0.000106442 -7.4106e-05 0.0121691)
(8.51748e-05 -8.51748e-05 0.0121301)
(5.47187e-05 -9.23829e-05 0.0121011)
(1.88213e-05 -9.6002e-05 0.0120863)
(-1.88213e-05 -9.6002e-05 0.0120863)
(-5.47187e-05 -9.23829e-05 0.0121011)
(-8.51748e-05 -8.51747e-05 0.0121301)
(-0.000106442 -7.4106e-05 0.0121691)
(-0.000115405 -5.94191e-05 0.0122007)
(0.000100646 -7.39604e-05 0.0121961)
(9.24658e-05 -9.24658e-05 0.012195)
(7.4106e-05 -0.000106442 0.0121691)
(4.77096e-05 -0.000115675 0.0121462)
(1.64068e-05 -0.000120399 0.0121339)
(-1.64068e-05 -0.000120399 0.0121339)
(-4.77095e-05 -0.000115675 0.0121462)
(-7.4106e-05 -0.000106442 0.0121691)
(-9.24659e-05 -9.24659e-05 0.012195)
(-0.000100646 -7.39605e-05 0.0121961)
(8.17408e-05 -8.17408e-05 0.0121382)
(7.39604e-05 -0.000100646 0.0121961)
(5.94189e-05 -0.000115405 0.0122007)
(3.82847e-05 -0.000125451 0.0121919)
(1.3123e-05 -0.000130719 0.0121854)
(-1.3123e-05 -0.000130719 0.0121854)
(-3.82848e-05 -0.000125451 0.0121919)
(-5.94191e-05 -0.000115405 0.0122007)
(-7.39605e-05 -0.000100646 0.0121961)
(-8.17407e-05 -8.17407e-05 0.0121382)
(2.69897e-05 2.69897e-05 0.0121163)
(2.50365e-05 3.43279e-05 0.0121961)
(2.07086e-05 4.02476e-05 0.012219)
(1.35251e-05 4.44949e-05 0.0122232)
(4.66763e-06 4.67531e-05 0.0122232)
(-4.66763e-06 4.6753e-05 0.0122232)
(-1.35251e-05 4.44949e-05 0.0122232)
(-2.07086e-05 4.02476e-05 0.012219)
(-2.50365e-05 3.43279e-05 0.0121961)
(-2.69897e-05 2.69898e-05 0.0121163)
(3.43279e-05 2.50365e-05 0.0121961)
(3.28087e-05 3.28087e-05 0.0122239)
(2.7076e-05 3.89321e-05 0.0122209)
(1.77379e-05 4.31756e-05 0.0122137)
(6.15216e-06 4.53946e-05 0.0122093)
(-6.15216e-06 4.53946e-05 0.0122093)
(-1.77378e-05 4.31757e-05 0.0122137)
(-2.70759e-05 3.89321e-05 0.0122209)
(-3.28087e-05 3.28087e-05 0.0122239)
(-3.43279e-05 2.50366e-05 0.0121961)
(4.02476e-05 2.07086e-05 0.012219)
(3.8932e-05 2.7076e-05 0.0122209)
(3.21938e-05 3.21938e-05 0.0122077)
(2.11069e-05 3.57155e-05 0.0121961)
(7.3324e-06 3.75354e-05 0.0121898)
(-7.33239e-06 3.75354e-05 0.0121898)
(-2.11069e-05 3.57155e-05 0.0121961)
(-3.21938e-05 3.21938e-05 0.0122077)
(-3.8932e-05 2.7076e-05 0.0122209)
(-4.02476e-05 2.07086e-05 0.012219)
(4.44949e-05 1.35251e-05 0.0122232)
(4.31756e-05 1.77379e-05 0.0122137)
(3.57155e-05 2.11069e-05 0.0121961)
(2.34199e-05 2.34199e-05 0.0121823)
(8.14081e-06 2.46094e-05 0.0121751)
(-8.14079e-06 2.46094e-05 0.0121751)
(-2.34199e-05 2.34199e-05 0.0121823)
(-3.57155e-05 2.11069e-05 0.0121961)
(-4.31756e-05 1.77378e-05 0.0122137)
(-4.44949e-05 1.35251e-05 0.0122232)
(4.67531e-05 4.66762e-06 0.0122232)
(4.53946e-05 6.15217e-06 0.0122093)
(3.75354e-05 7.33241e-06 0.0121898)
(2.46093e-05 8.14082e-06 0.0121751)
(8.55518e-06 8.55518e-06 0.0121674)
(-8.55516e-06 8.55518e-06 0.0121674)
(-2.46093e-05 8.14081e-06 0.0121751)
(-3.75354e-05 7.3324e-06 0.0121898)
(-4.53946e-05 6.15216e-06 0.0122093)
(-4.6753e-05 4.66764e-06 0.0122232)
(4.67531e-05 -4.66763e-06 0.0122232)
(4.53946e-05 -6.15214e-06 0.0122093)
(3.75354e-05 -7.33237e-06 0.0121898)
(2.46093e-05 -8.14078e-06 0.0121751)
(8.55517e-06 -8.55515e-06 0.0121674)
(-8.55517e-06 -8.55516e-06 0.0121674)
(-2.46093e-05 -8.1408e-06 0.0121751)
(-3.75354e-05 -7.3324e-06 0.0121898)
(-4.53946e-05 -6.15216e-06 0.0122093)
(-4.6753e-05 -4.66762e-06 0.0122232)
(4.44949e-05 -1.35251e-05 0.0122232)
(4.31757e-05 -1.77378e-05 0.0122137)
(3.57155e-05 -2.11068e-05 0.0121961)
(2.34199e-05 -2.34199e-05 0.0121823)
(8.1408e-06 -2.46093e-05 0.0121751)
(-8.1408e-06 -2.46093e-05 0.0121751)
(-2.34199e-05 -2.34199e-05 0.0121823)
(-3.57155e-05 -2.11069e-05 0.0121961)
(-4.31756e-05 -1.77378e-05 0.0122137)
(-4.44949e-05 -1.35251e-05 0.0122232)
(4.02476e-05 -2.07086e-05 0.012219)
(3.89321e-05 -2.7076e-05 0.0122209)
(3.21938e-05 -3.21938e-05 0.0122077)
(2.11068e-05 -3.57155e-05 0.0121961)
(7.33238e-06 -3.75354e-05 0.0121898)
(-7.3324e-06 -3.75354e-05 0.0121898)
(-2.11069e-05 -3.57155e-05 0.0121961)
(-3.21938e-05 -3.21938e-05 0.0122077)
(-3.89321e-05 -2.7076e-05 0.0122209)
(-4.02476e-05 -2.07086e-05 0.012219)
(3.4328e-05 -2.50365e-05 0.0121961)
(3.28088e-05 -3.28088e-05 0.0122239)
(2.7076e-05 -3.89321e-05 0.0122209)
(1.77378e-05 -4.31757e-05 0.0122137)
(6.15215e-06 -4.53946e-05 0.0122093)
(-6.15216e-06 -4.53946e-05 0.0122093)
(-1.77378e-05 -4.31756e-05 0.0122137)
(-2.7076e-05 -3.89321e-05 0.0122209)
(-3.28088e-05 -3.28088e-05 0.0122239)
(-3.43279e-05 -2.50366e-05 0.0121961)
(2.69897e-05 -2.69897e-05 0.0121163)
(2.50365e-05 -3.43279e-05 0.0121961)
(2.07086e-05 -4.02476e-05 0.012219)
(1.35251e-05 -4.44949e-05 0.0122232)
(4.66765e-06 -4.6753e-05 0.0122232)
(-4.66762e-06 -4.6753e-05 0.0122232)
(-1.35252e-05 -4.44949e-05 0.0122232)
(-2.07087e-05 -4.02476e-05 0.012219)
(-2.50366e-05 -3.43279e-05 0.0121961)
(-2.69897e-05 -2.69896e-05 0.0121163)
(9.06622e-06 9.06622e-06 0.0121009)
(8.64484e-06 1.18794e-05 0.0121868)
(7.35216e-06 1.41644e-05 0.0122156)
(4.86535e-06 1.58351e-05 0.0122242)
(1.69081e-06 1.67246e-05 0.0122266)
(-1.69081e-06 1.67246e-05 0.0122266)
(-4.86533e-06 1.5835e-05 0.0122242)
(-7.35213e-06 1.41644e-05 0.0122156)
(-8.64483e-06 1.18794e-05 0.0121868)
(-9.06621e-06 9.06621e-06 0.0121009)
(1.18794e-05 8.64484e-06 0.0121868)
(1.17291e-05 1.17291e-05 0.0122245)
(9.90974e-06 1.41945e-05 0.0122303)
(6.57918e-06 1.59374e-05 0.0122294)
(2.29675e-06 1.68547e-05 0.0122282)
(-2.29675e-06 1.68547e-05 0.0122282)
(-6.57917e-06 1.59374e-05 0.0122294)
(-9.90972e-06 1.41945e-05 0.0122303)
(-1.17291e-05 1.17291e-05 0.0122245)
(-1.18793e-05 8.64483e-06 0.0121868)
(1.41644e-05 7.35216e-06 0.0122156)
(1.41945e-05 9.90972e-06 0.0122303)
(1.20165e-05 1.20165e-05 0.0122279)
(7.98931e-06 1.34998e-05 0.012224)
(2.79413e-06 1.42749e-05 0.0122218)
(-2.79411e-06 1.42749e-05 0.0122218)
(-7.98931e-06 1.34998e-05 0.012224)
(-1.20165e-05 1.20165e-05 0.0122279)
(-1.41945e-05 9.90972e-06 0.0122303)
(-1.41644e-05 7.35214e-06 0.0122156)
(1.5835e-05 4.86535e-06 0.0122242)
(1.59374e-05 6.57918e-06 0.0122294)
(1.34998e-05 7.98931e-06 0.012224)
(8.98094e-06 8.98093e-06 0.012219)
(3.14353e-06 9.49754e-06 0.0122162)
(-3.1435e-06 9.49755e-06 0.0122162)
(-8.98093e-06 8.98094e-06 0.012219)
(-1.34998e-05 7.98932e-06 0.012224)
(-1.59374e-05 6.5792e-06 0.0122294)
(-1.5835e-05 4.86535e-06 0.0122242)
(1.67246e-05 1.69081e-06 0.0122266)
(1.68547e-05 2.29675e-06 0.0122282)
(1.42749e-05 2.79413e-06 0.0122218)
(9.49755e-06 3.14352e-06 0.0122162)
(3.32519e-06 3.32519e-06 0.0122132)
(-3.32517e-06 3.32519e-06 0.0122132)
(-9.49753e-06 3.14353e-06 0.0122162)
(-1.42749e-05 2.79414e-06 0.0122218)
(-1.68547e-05 2.29677e-06 0.0122282)
(-1.67246e-05 1.69081e-06 0.0122266)
(1.67246e-05 -1.69082e-06 0.0122266)
(1.68547e-05 -2.29676e-06 0.0122282)
(1.42749e-05 -2.79412e-06 0.0122218)
(9.49756e-06 -3.1435e-06 0.0122162)
(3.3252e-06 -3.32517e-06 0.0122132)
(-3.32517e-06 -3.32517e-06 0.0122132)
(-9.49753e-06 -3.1435e-06 0.0122162)
(-1.42749e-05 -2.79411e-06 0.0122218)
(-1.68547e-05 -2.29675e-06 0.0122282)
(-1.67246e-05 -1.69082e-06 0.0122266)
(1.5835e-05 -4.86532e-06 0.0122242)
(1.59374e-05 -6.57917e-06 0.0122294)
(1.34998e-05 -7.9893e-06 0.012224)
(8.98095e-06 -8.98092e-06 0.012219)
(3.14353e-06 -9.49753e-06 0.0122162)
(-3.14351e-06 -9.49753e-06 0.0122162)
(-8.98092e-06 -8.98091e-06 0.012219)
(-1.34998e-05 -7.98929e-06 0.012224)
(-1.59374e-05 -6.57918e-06 0.0122294)
(-1.58351e-05 -4.86537e-06 0.0122242)
(1.41644e-05 -7.35211e-06 0.0122156)
(1.41945e-05 -9.90968e-06 0.0122303)
(1.20165e-05 -1.20165e-05 0.0122279)
(7.98933e-06 -1.34998e-05 0.012224)
(2.79414e-06 -1.42749e-05 0.0122218)
(-2.7941e-06 -1.42749e-05 0.0122218)
(-7.98929e-06 -1.34998e-05 0.012224)
(-1.20165e-05 -1.20165e-05 0.0122279)
(-1.41946e-05 -9.90977e-06 0.0122303)
(-1.41644e-05 -7.35217e-06 0.0122156)
(1.18794e-05 -8.64483e-06 0.0121868)
(1.17291e-05 -1.1729e-05 0.0122245)
(9.90971e-06 -1.41945e-05 0.0122303)
(6.57917e-06 -1.59374e-05 0.0122294)
(2.29677e-06 -1.68547e-05 0.0122282)
(-2.29673e-06 -1.68547e-05 0.0122282)
(-6.57918e-06 -1.59374e-05 0.0122294)
(-9.90979e-06 -1.41946e-05 0.0122303)
(-1.17291e-05 -1.17291e-05 0.0122245)
(-1.18793e-05 -8.64482e-06 0.0121868)
(9.06625e-06 -9.06621e-06 0.0121009)
(8.64485e-06 -1.18794e-05 0.0121868)
(7.35212e-06 -1.41644e-05 0.0122156)
(4.86533e-06 -1.5835e-05 0.0122242)
(1.69082e-06 -1.67246e-05 0.0122266)
(-1.69082e-06 -1.67246e-05 0.0122266)
(-4.86539e-06 -1.58351e-05 0.0122242)
(-7.35218e-06 -1.41644e-05 0.0122156)
(-8.64482e-06 -1.18793e-05 0.0121868)
(-9.0662e-06 -9.06617e-06 0.0121009)
(2.86321e-06 2.86321e-06 0.0120962)
(2.81539e-06 3.92422e-06 0.0121838)
(2.46263e-06 4.78848e-06 0.0122144)
(1.65207e-06 5.43851e-06 0.0122244)
(5.78393e-07 5.78462e-06 0.0122275)
(-5.78396e-07 5.78462e-06 0.0122275)
(-1.65207e-06 5.43854e-06 0.0122244)
(-2.46264e-06 4.78853e-06 0.0122144)
(-2.81541e-06 3.92429e-06 0.0121838)
(-2.86321e-06 2.86323e-06 0.0120962)
(3.92421e-06 2.8154e-06 0.0121838)
(3.99943e-06 3.99944e-06 0.0122247)
(3.46157e-06 4.96963e-06 0.0122333)
(2.33098e-06 5.67154e-06 0.0122347)
(8.19482e-07 6.04404e-06 0.0122346)
(-8.19458e-07 6.04404e-06 0.0122346)
(-2.33093e-06 5.67157e-06 0.0122347)
(-3.46156e-06 4.9697e-06 0.0122333)
(-3.99949e-06 3.99952e-06 0.0122247)
(-3.92426e-06 2.81543e-06 0.0121838)
(4.78845e-06 2.46264e-06 0.0122144)
(4.96962e-06 3.46158e-06 0.0122333)
(4.31021e-06 4.31021e-06 0.0122348)
(2.90806e-06 4.92207e-06 0.0122337)
(1.02432e-06 5.24529e-06 0.0122329)
(-1.02429e-06 5.24529e-06 0.0122329)
(-2.90801e-06 4.92207e-06 0.0122337)
(-4.31017e-06 4.3102e-06 0.0122348)
(-4.96967e-06 3.46159e-06 0.0122333)
(-4.78852e-06 2.46266e-06 0.0122144)
(5.4385e-06 1.65207e-06 0.0122244)
(5.67153e-06 2.331e-06 0.0122347)
(4.92207e-06 2.90808e-06 0.0122337)
(3.32365e-06 3.32366e-06 0.0122319)
(1.17176e-06 3.54273e-06 0.0122309)
(-1.17173e-06 3.54273e-06 0.0122309)
(-3.32362e-06 3.32365e-06 0.0122319)
(-4.92203e-06 2.90804e-06 0.0122337)
(-5.67155e-06 2.33096e-06 0.0122347)
(-5.43853e-06 1.6521e-06 0.0122244)
(5.78462e-06 5.78391e-07 0.0122275)
(6.04403e-06 8.19494e-07 0.0122346)
(5.24528e-06 1.02433e-06 0.0122329)
(3.54272e-06 1.17177e-06 0.0122309)
(1.24936e-06 1.24937e-06 0.0122297)
(-1.24934e-06 1.24937e-06 0.0122297)
(-3.5427e-06 1.17175e-06 0.0122309)
(-5.24526e-06 1.02431e-06 0.0122329)
(-6.04402e-06 8.19473e-07 0.0122346)
(-5.78463e-06 5.7841e-07 0.0122275)
(5.78462e-06 -5.78407e-07 0.0122275)
(6.04404e-06 -8.19461e-07 0.0122346)
(5.24529e-06 -1.02429e-06 0.0122329)
(3.54272e-06 -1.17173e-06 0.0122309)
(1.24936e-06 -1.24934e-06 0.0122297)
(-1.24935e-06 -1.24934e-06 0.0122297)
(-3.5427e-06 -1.17174e-06 0.0122309)
(-5.24526e-06 -1.02431e-06 0.0122329)
(-6.04401e-06 -8.19473e-07 0.0122346)
(-5.78463e-06 -5.78404e-07 0.0122275)
(5.43853e-06 -1.65207e-06 0.0122244)
(5.67157e-06 -2.33094e-06 0.0122347)
(4.92206e-06 -2.90802e-06 0.0122337)
(3.32364e-06 -3.32363e-06 0.0122319)
(1.17175e-06 -3.5427e-06 0.0122309)
(-1.17175e-06 -3.5427e-06 0.0122309)
(-3.32363e-06 -3.32363e-06 0.0122319)
(-4.92204e-06 -2.90804e-06 0.0122337)
(-5.67154e-06 -2.33099e-06 0.0122347)
(-5.43852e-06 -1.65211e-06 0.0122244)
(4.78853e-06 -2.46264e-06 0.0122144)
(4.96969e-06 -3.46157e-06 0.0122333)
(4.31019e-06 -4.3102e-06 0.0122348)
(2.90804e-06 -4.92205e-06 0.0122337)
(1.02431e-06 -5.24526e-06 0.0122329)
(-1.02431e-06 -5.24526e-06 0.0122329)
(-2.90804e-06 -4.92205e-06 0.0122337)
(-4.3102e-06 -4.31021e-06 0.0122348)
(-4.96967e-06 -3.46161e-06 0.0122333)
(-4.78848e-06 -2.46267e-06 0.0122144)
(3.92428e-06 -2.81541e-06 0.0121838)
(3.99949e-06 -3.99951e-06 0.0122247)
(3.46159e-06 -4.96969e-06 0.0122333)
(2.33098e-06 -5.67154e-06 0.0122347)
(8.19475e-07 -6.04402e-06 0.0122346)
(-8.1949e-07 -6.04402e-06 0.0122346)
(-2.33099e-06 -5.67154e-06 0.0122347)
(-3.4616e-06 -4.96965e-06 0.0122333)
(-3.99947e-06 -3.99948e-06 0.0122247)
(-3.92422e-06 -2.8154e-06 0.0121838)
(2.86323e-06 -2.86321e-06 0.0120962)
(2.81541e-06 -3.92425e-06 0.0121838)
(2.46268e-06 -4.7885e-06 0.0122144)
(1.65212e-06 -5.43853e-06 0.0122244)
(5.78407e-07 -5.78463e-06 0.0122275)
(-5.78408e-07 -5.78462e-06 0.0122275)
(-1.65209e-06 -5.43851e-06 0.0122244)
(-2.46267e-06 -4.78848e-06 0.0122144)
(-2.81542e-06 -3.92423e-06 0.0121838)
(-2.8632e-06 -2.8632e-06 0.0120962)
(9.10969e-07 9.1098e-07 0.0120946)
(9.12537e-07 1.28308e-06 0.0121828)
(8.11323e-07 1.58723e-06 0.012214)
(5.48104e-07 1.82275e-06 0.0122245)
(1.92742e-07 1.94825e-06 0.0122279)
(-1.9275e-07 1.94824e-06 0.0122279)
(-5.48087e-07 1.82273e-06 0.0122245)
(-8.11288e-07 1.58719e-06 0.012214)
(-9.12505e-07 1.28306e-06 0.0121828)
(-9.10949e-07 9.10984e-07 0.0120946)
(1.28307e-06 9.12522e-07 0.0121828)
(1.33487e-06 1.33486e-06 0.0122247)
(1.17419e-06 1.68922e-06 0.0122344)
(7.98151e-07 1.95147e-06 0.0122365)
(2.81971e-07 2.09203e-06 0.0122369)
(-2.81987e-07 2.09203e-06 0.0122369)
(-7.98171e-07 1.95147e-06 0.0122365)
(-1.17417e-06 1.68919e-06 0.0122344)
(-1.33481e-06 1.33483e-06 0.0122247)
(-1.28303e-06 9.12516e-07 0.0121828)
(1.58724e-06 8.11314e-07 0.012214)
(1.68923e-06 1.17419e-06 0.0122344)
(1.49173e-06 1.49173e-06 0.0122373)
(1.01766e-06 1.72619e-06 0.0122373)
(3.60443e-07 1.85157e-06 0.012237)
(-3.60451e-07 1.85158e-06 0.012237)
(-1.01767e-06 1.7262e-06 0.0122373)
(-1.49173e-06 1.49175e-06 0.0122373)
(-1.68919e-06 1.17419e-06 0.0122344)
(-1.58719e-06 8.11303e-07 0.012214)
(1.82276e-06 5.48109e-07 0.0122245)
(1.95148e-06 7.98155e-07 0.0122365)
(1.72619e-06 1.01765e-06 0.0122373)
(1.17969e-06 1.17969e-06 0.0122367)
(4.18381e-07 1.26624e-06 0.0122363)
(-4.18376e-07 1.26625e-06 0.0122363)
(-1.17969e-06 1.17971e-06 0.0122367)
(-1.72618e-06 1.01768e-06 0.0122373)
(-1.95145e-06 7.98177e-07 0.0122365)
(-1.82273e-06 5.4811e-07 0.0122245)
(1.94826e-06 1.92746e-07 0.0122279)
(2.09203e-06 2.81962e-07 0.0122369)
(1.85157e-06 3.60432e-07 0.012237)
(1.26624e-06 4.18375e-07 0.0122363)
(4.49303e-07 4.49299e-07 0.0122359)
(-4.49284e-07 4.49305e-07 0.0122359)
(-1.26623e-06 4.18395e-07 0.0122363)
(-1.85156e-06 3.60464e-07 0.012237)
(-2.09201e-06 2.81988e-07 0.0122369)
(-1.94825e-06 1.92746e-07 0.0122279)
(1.94825e-06 -1.92754e-07 0.0122279)
(2.09203e-06 -2.81989e-07 0.0122369)
(1.85158e-06 -3.6045e-07 0.012237)
(1.26625e-06 -4.18374e-07 0.0122363)
(4.4931e-07 -4.49279e-07 0.0122359)
(-4.49279e-07 -4.49277e-07 0.0122359)
(-1.26623e-06 -4.18364e-07 0.0122363)
(-1.85157e-06 -3.60439e-07 0.012237)
(-2.09202e-06 -2.81987e-07 0.0122369)
(-1.94825e-06 -1.92763e-07 0.0122279)
(1.82274e-06 -5.48096e-07 0.0122245)
(1.95147e-06 -7.98164e-07 0.0122365)
(1.7262e-06 -1.01766e-06 0.0122373)
(1.17972e-06 -1.17968e-06 0.0122367)
(4.184e-07 -1.26622e-06 0.0122363)
(-4.18369e-07 -1.26622e-06 0.0122363)
(-1.1797e-06 -1.17969e-06 0.0122367)
(-1.7262e-06 -1.01767e-06 0.0122373)
(-1.95147e-06 -7.98167e-07 0.0122365)
(-1.82274e-06 -5.48099e-07 0.0122245)
(1.5872e-06 -8.11288e-07 0.012214)
(1.6892e-06 -1.17417e-06 0.0122344)
(1.49175e-06 -1.49172e-06 0.0122373)
(1.0177e-06 -1.72617e-06 0.0122373)
(3.60464e-07 -1.85155e-06 0.012237)
(-3.60448e-07 -1.85157e-06 0.012237)
(-1.01768e-06 -1.72619e-06 0.0122373)
(-1.49174e-06 -1.49173e-06 0.0122373)
(-1.6892e-06 -1.17417e-06 0.0122344)
(-1.58722e-06 -8.11302e-07 0.012214)
(1.28305e-06 -9.12483e-07 0.0121828)
(1.33484e-06 -1.33479e-06 0.0122247)
(1.1742e-06 -1.68916e-06 0.0122344)
(7.98181e-07 -1.95144e-06 0.0122365)
(2.81979e-07 -2.09201e-06 0.0122369)
(-2.81991e-07 -2.09202e-06 0.0122369)
(-7.98168e-07 -1.95146e-06 0.0122365)
(-1.17418e-06 -1.68919e-06 0.0122344)
(-1.33484e-06 -1.33484e-06 0.0122247)
(-1.28307e-06 -9.12539e-07 0.0121828)
(9.10964e-07 -9.10931e-07 0.0120946)
(9.12527e-07 -1.28301e-06 0.0121828)
(8.11313e-07 -1.58717e-06 0.012214)