/*--------------------------------*- C++ -*----------------------------------*\
| =========                 |                                                 |
| \\      /  F ield         | OpenFOAM: The Open Source CFD Toolbox           |
|  \\    /   O peration     | Version:  2412                                  |
|   \\  /    A nd           | Website:  www.openfoam.com                      |
|    \\/     M anipulation  |                                                 |
\*---------------------------------------------------------------------------*/
FoamFile
{
    version     2.0;
    format      ascii;
    arch        "LSB;label=32;scalar=64";
    class       surfaceScalarField;
    location    "6";
    object      phi;
}
// * * * * * * * * * * * * * * * * * * * * * * * * * * * * * * * * * * * * * //

dimensions      [0 3 -1 0 0 0 0];

oriented        oriented;

internalField   nonuniform List<scalar> 
43700
(
1.86692e-07
1.86692e-07
5.49765e-07
-2.26565e-07
-2.26565e-07
1.38366e-07
1.66038e-07
5.94162e-07
-2.0249e-07
9.17354e-08
1.52612e-07
6.25746e-07
-1.92297e-07
4.55445e-08
1.43598e-07
6.46016e-07
-1.83711e-07
-8.04958e-17
1.3924e-07
6.55968e-07
-1.79734e-07
-4.55445e-08
1.3924e-07
6.55968e-07
-1.79734e-07
-9.17354e-08
1.43598e-07
6.46016e-07
-1.83711e-07
-1.38366e-07
1.52612e-07
6.25746e-07
-1.92297e-07
-1.86692e-07
1.66038e-07
5.94162e-07
-2.0249e-07
1.86692e-07
5.49765e-07
-2.26565e-07
-2.26565e-07
1.66038e-07
1.38366e-07
5.94162e-07
-2.0249e-07
1.23597e-07
1.23597e-07
6.30725e-07
8.14279e-08
1.12245e-07
6.56227e-07
4.03079e-08
1.04608e-07
6.72607e-07
-8.87365e-19
1.00855e-07
6.80665e-07
-4.03079e-08
1.00855e-07
6.80665e-07
-8.14279e-08
1.04608e-07
6.72607e-07
-1.23597e-07
1.12245e-07
6.56227e-07
-1.66038e-07
1.23597e-07
6.30725e-07
1.38366e-07
5.94162e-07
-2.0249e-07
1.52612e-07
9.17354e-08
6.25746e-07
-1.92297e-07
1.12245e-07
8.14279e-08
6.56227e-07
7.34044e-08
7.34044e-08
6.77554e-07
3.62053e-08
6.80012e-08
6.91369e-07
-1.46037e-16
6.53332e-08
6.98205e-07
-3.62053e-08
6.53332e-08
6.98205e-07
-7.34044e-08
6.80012e-08
6.91369e-07
-1.12245e-07
7.34044e-08
6.77554e-07
-1.52612e-07
8.14279e-08
6.56227e-07
9.17354e-08
6.25746e-07
-1.92297e-07
1.43598e-07
4.55445e-08
6.46016e-07
-1.83711e-07
1.04608e-07
4.03079e-08
6.72607e-07
6.80012e-08
3.62053e-08
6.91369e-07
3.34328e-08
3.34328e-08
7.0364e-07
-7.34726e-17
3.20603e-08
7.09748e-07
-3.34328e-08
3.20603e-08
7.09748e-07
-6.80012e-08
3.34328e-08
7.0364e-07
-1.04608e-07
3.62053e-08
6.91369e-07
-1.43598e-07
4.03079e-08
6.72607e-07
4.55445e-08
6.46016e-07
-1.83711e-07
1.3924e-07
-8.88746e-16
6.55968e-07
-1.79734e-07
1.00855e-07
2.20627e-16
6.80665e-07
6.53332e-08
2.252e-16
6.98205e-07
3.20603e-08
-7.18546e-17
7.09748e-07
1.46011e-16
1.18735e-16
7.15513e-07
-3.20603e-08
-9.08389e-17
7.15513e-07
-6.53332e-08
-2.1908e-16
7.09748e-07
-1.00855e-07
3.06152e-17
6.98205e-07
-1.3924e-07
1.70032e-17
6.80665e-07
-3.78633e-16
6.55968e-07
-1.79734e-07
1.3924e-07
-4.55445e-08
6.55968e-07
-1.79734e-07
1.00855e-07
-4.03079e-08
6.80665e-07
6.53332e-08
-3.62053e-08
6.98205e-07
3.20603e-08
-3.34328e-08
7.09748e-07
-2.2819e-16
-3.20603e-08
7.15513e-07
-3.20603e-08
-3.20603e-08
7.15513e-07
-6.53332e-08
-3.34328e-08
7.09748e-07
-1.00855e-07
-3.62053e-08
6.98205e-07
-1.3924e-07
-4.03079e-08
6.80665e-07
-4.55445e-08
6.55968e-07
-1.79734e-07
1.43598e-07
-9.17354e-08
6.46016e-07
-1.83711e-07
1.04608e-07
-8.14279e-08
6.72607e-07
6.80012e-08
-7.34044e-08
6.91369e-07
3.34328e-08
-6.80012e-08
7.0364e-07
6.37162e-17
-6.53332e-08
7.09748e-07
-3.34328e-08
-6.53332e-08
7.09748e-07
-6.80012e-08
-6.80012e-08
7.0364e-07
-1.04608e-07
-7.34044e-08
6.91369e-07
-1.43598e-07
-8.14279e-08
6.72607e-07
-9.17354e-08
6.46016e-07
-1.83711e-07
1.52612e-07
-1.38366e-07
6.25746e-07
-1.92297e-07
1.12245e-07
-1.23597e-07
6.56227e-07
7.34044e-08
-1.12245e-07
6.77554e-07
3.62053e-08
-1.04608e-07
6.91369e-07
3.99474e-16
-1.00855e-07
6.98205e-07
-3.62053e-08
-1.00855e-07
6.98205e-07
-7.34044e-08
-1.04608e-07
6.91369e-07
-1.12245e-07
-1.12245e-07
6.77554e-07
-1.52612e-07
-1.23597e-07
6.56227e-07
-1.38366e-07
6.25746e-07
-1.92297e-07
1.66038e-07
-1.86692e-07
5.94162e-07
-2.0249e-07
1.23597e-07
-1.66038e-07
6.30725e-07
8.14279e-08
-1.52612e-07
6.56227e-07
4.03079e-08
-1.43598e-07
6.72607e-07
2.34055e-16
-1.3924e-07
6.80665e-07
-4.03079e-08
-1.3924e-07
6.80665e-07
-8.14279e-08
-1.43598e-07
6.72607e-07
-1.23597e-07
-1.52612e-07
6.56227e-07
-1.66038e-07
-1.66038e-07
6.30725e-07
-1.86692e-07
5.94162e-07
-2.0249e-07
1.86692e-07
5.49765e-07
-2.26565e-07
-2.26565e-07
1.38366e-07
5.94162e-07
-2.0249e-07
9.17354e-08
6.25746e-07
-1.92297e-07
4.55445e-08
6.46016e-07
-1.83711e-07
-3.85187e-16
6.55968e-07
-1.79734e-07
-4.55445e-08
6.55968e-07
-1.79734e-07
-9.17354e-08
6.46016e-07
-1.83711e-07
-1.38366e-07
6.25746e-07
-1.92297e-07
-1.86692e-07
5.94162e-07
-2.0249e-07
5.49765e-07
-2.26565e-07
-2.26565e-07
1.20697e-07
1.20697e-07
5.85525e-07
-1.38577e-07
-1.38577e-07
9.4779e-08
1.18207e-07
6.4039e-07
-1.38517e-07
6.47356e-08
1.14988e-07
6.78139e-07
-1.37337e-07
3.26933e-08
1.12041e-07
7.01531e-07
-1.35514e-07
-4.4155e-16
1.10539e-07
7.12746e-07
-1.34624e-07
-3.26933e-08
1.10539e-07
7.12746e-07
-1.34624e-07
-6.47356e-08
1.12041e-07
7.01531e-07
-1.35514e-07
-9.4779e-08
1.14988e-07
6.78139e-07
-1.37337e-07
-1.20697e-07
1.18207e-07
6.4039e-07
-1.38517e-07
1.20697e-07
5.85525e-07
-1.38577e-07
-1.38577e-07
1.18207e-07
9.4779e-08
6.4039e-07
-1.38517e-07
9.1207e-08
9.1207e-08
6.84725e-07
6.15504e-08
8.7487e-08
7.13384e-07
3.08872e-08
8.45572e-08
7.30754e-07
-5.60256e-17
8.30649e-08
7.39027e-07
-3.08872e-08
8.30649e-08
7.39027e-07
-6.15504e-08
8.45572e-08
7.30754e-07
-9.1207e-08
8.7487e-08
7.13384e-07
-1.18207e-07
9.1207e-08
6.84725e-07
9.4779e-08
6.4039e-07
-1.38517e-07
1.14988e-07
6.47356e-08
6.78139e-07
-1.37337e-07
8.7487e-08
6.15504e-08
7.13384e-07
5.85179e-08
5.85179e-08
7.35492e-07
2.92487e-08
5.62947e-08
7.489e-07
1.20122e-16
5.51751e-08
7.55344e-07
-2.92487e-08
5.51751e-08
7.55344e-07
-5.85179e-08
5.62947e-08
7.489e-07
-8.7487e-08
5.85179e-08
7.35492e-07
-1.14988e-07
6.15504e-08
7.13384e-07
6.47356e-08
6.78139e-07
-1.37337e-07
1.12041e-07
3.26933e-08
7.01531e-07
-1.35514e-07
8.45572e-08
3.08872e-08
7.30754e-07
5.62947e-08
2.92487e-08
7.489e-07
2.80826e-08
2.80826e-08
7.60064e-07
3.81887e-16
2.74988e-08
7.65507e-07
-2.80826e-08
2.74988e-08
7.65507e-07
-5.62947e-08
2.80826e-08
7.60064e-07
-8.45572e-08
2.92487e-08
7.489e-07
-1.12041e-07
3.08872e-08
7.30754e-07
3.26933e-08
7.01531e-07
-1.35514e-07
1.10539e-07
2.76418e-16
7.12746e-07
-1.34624e-07
8.30649e-08
7.33734e-16
7.39027e-07
5.51751e-08
4.31529e-16
7.55344e-07
2.74988e-08
3.12094e-16
7.65507e-07
5.88022e-16
3.94546e-16
7.70511e-07
-2.74988e-08
5.174e-16
7.70511e-07
-5.51751e-08
2.9275e-16
7.65507e-07
-8.30649e-08
-2.0469e-16
7.55344e-07
-1.10539e-07
-2.5785e-16
7.39027e-07
-1.23279e-16
7.12746e-07
-1.34624e-07
1.10539e-07
-3.26933e-08
7.12746e-07
-1.34624e-07
8.30649e-08
-3.08872e-08
7.39027e-07
5.51751e-08
-2.92487e-08
7.55344e-07
2.74988e-08
-2.80826e-08
7.65507e-07
4.89758e-16
-2.74988e-08
7.70511e-07
-2.74988e-08
-2.74988e-08
7.70511e-07
-5.51751e-08
-2.80826e-08
7.65507e-07
-8.30649e-08
-2.92487e-08
7.55344e-07
-1.10539e-07
-3.08872e-08
7.39027e-07
-3.26933e-08
7.12746e-07
-1.34624e-07
1.12041e-07
-6.47356e-08
7.01531e-07
-1.35514e-07
8.45572e-08
-6.15504e-08
7.30754e-07
5.62947e-08
-5.85179e-08
7.489e-07
2.80826e-08
-5.62947e-08
7.60064e-07
6.4779e-16
-5.51751e-08
7.65507e-07
-2.80826e-08
-5.51751e-08
7.65507e-07
-5.62947e-08
-5.62947e-08
7.60064e-07
-8.45572e-08
-5.85179e-08
7.489e-07
-1.12041e-07
-6.15504e-08
7.30754e-07
-6.47356e-08
7.01531e-07
-1.35514e-07
1.14988e-07
-9.4779e-08
6.78139e-07
-1.37337e-07
8.7487e-08
-9.1207e-08
7.13384e-07
5.85179e-08
-8.7487e-08
7.35492e-07
2.92487e-08
-8.45572e-08
7.489e-07
7.8967e-16
-8.30649e-08
7.55344e-07
-2.92487e-08
-8.30649e-08
7.55344e-07
-5.85179e-08
-8.45572e-08
7.489e-07
-8.7487e-08
-8.7487e-08
7.35492e-07
-1.14988e-07
-9.1207e-08
7.13384e-07
-9.4779e-08
6.78139e-07
-1.37337e-07
1.18207e-07
-1.20697e-07
6.4039e-07
-1.38517e-07
9.1207e-08
-1.18207e-07
6.84725e-07
6.15504e-08
-1.14988e-07
7.13384e-07
3.08872e-08
-1.12041e-07
7.30754e-07
7.80187e-16
-1.10539e-07
7.39027e-07
-3.08872e-08
-1.10539e-07
7.39027e-07
-6.15504e-08
-1.12041e-07
7.30754e-07
-9.1207e-08
-1.14988e-07
7.13384e-07
-1.18207e-07
-1.18207e-07
6.84725e-07
-1.20697e-07
6.4039e-07
-1.38517e-07
1.20697e-07
5.85525e-07
-1.38577e-07
-1.38577e-07
9.4779e-08
6.4039e-07
-1.38517e-07
6.47356e-08
6.78139e-07
-1.37337e-07
3.26933e-08
7.01531e-07
-1.35514e-07
2.16805e-16
7.12746e-07
-1.34624e-07
-3.26933e-08
7.12746e-07
-1.34624e-07
-6.47356e-08
7.01531e-07
-1.35514e-07
-9.4779e-08
6.78139e-07
-1.37337e-07
-1.20697e-07
6.4039e-07
-1.38517e-07
5.85525e-07
-1.38577e-07
-1.38577e-07
8.34743e-08
8.34743e-08
5.9513e-07
-8.82768e-08
-8.82768e-08
6.98426e-08
8.78659e-08
6.60266e-07
-9.41097e-08
4.97493e-08
8.97369e-08
7.05419e-07
-9.6924e-08
2.57737e-08
9.02003e-08
7.33469e-07
-9.8163e-08
-1.16973e-15
9.03056e-08
7.46902e-07
-9.86879e-08
-2.57737e-08
9.03056e-08
7.46902e-07
-9.86879e-08
-4.97493e-08
9.02003e-08
7.33469e-07
-9.8163e-08
-6.98426e-08
8.97369e-08
7.05419e-07
-9.6924e-08
-8.34743e-08
8.78659e-08
6.60266e-07
-9.41097e-08
8.34743e-08
5.9513e-07
-8.82768e-08
-8.82768e-08
8.78659e-08
6.98426e-08
6.60266e-07
-9.41097e-08
7.25778e-08
7.25778e-08
7.15301e-07
5.13553e-08
7.35174e-08
7.50826e-07
2.65116e-08
7.35478e-08
7.7225e-07
7.66373e-16
7.34426e-08
7.82402e-07
-2.65116e-08
7.34426e-08
7.82402e-07
-5.13553e-08
7.35478e-08
7.7225e-07
-7.25778e-08
7.35174e-08
7.50826e-07
-8.78659e-08
7.25778e-08
7.15301e-07
6.98426e-08
6.60266e-07
-9.41097e-08
8.97369e-08
4.97493e-08
7.05419e-07
-9.6924e-08
7.35174e-08
5.13553e-08
7.50826e-07
5.17578e-08
5.17578e-08
7.79011e-07
2.66612e-08
5.16412e-08
7.95903e-07
8.63406e-16
5.14953e-08
8.03952e-07
-2.66612e-08
5.14953e-08
8.03952e-07
-5.17578e-08
5.16412e-08
7.95903e-07
-7.35174e-08
5.17578e-08
7.79011e-07
-8.97369e-08
5.13553e-08
7.50826e-07
4.97493e-08
7.05419e-07
-9.6924e-08
9.02003e-08
2.57737e-08
7.33469e-07
-9.8163e-08
7.35478e-08
2.65116e-08
7.7225e-07
5.16412e-08
2.66612e-08
7.95903e-07
2.65728e-08
2.65728e-08
8.10201e-07
9.16761e-16
2.64826e-08
8.17092e-07
-2.65728e-08
2.64826e-08
8.17092e-07
-5.16412e-08
2.65728e-08
8.10201e-07
-7.35477e-08
2.66612e-08
7.95903e-07
-9.02003e-08
2.65116e-08
7.7225e-07
2.57737e-08
7.33469e-07
-9.8163e-08
9.03056e-08
-1.91376e-16
7.46902e-07
-9.86879e-08
7.34426e-08
1.82774e-15
7.82402e-07
5.14953e-08
1.46334e-15
8.03952e-07
2.64826e-08
1.17901e-15
8.17092e-07
8.22261e-16
1.09592e-15
8.23476e-07
-2.64826e-08
1.05072e-15
8.23476e-07
-5.14953e-08
8.09479e-16
8.17092e-07
-7.34426e-08
-1.99276e-16
8.03952e-07
-9.03056e-08
-1.76735e-15
7.82402e-07
-1.32816e-15
7.46902e-07
-9.86879e-08
9.03056e-08
-2.57737e-08
7.46902e-07
-9.86879e-08
7.34426e-08
-2.65116e-08
7.82402e-07
5.14953e-08
-2.66612e-08
8.03952e-07
2.64826e-08
-2.65728e-08
8.17092e-07
7.14307e-16
-2.64826e-08
8.23476e-07
-2.64826e-08
-2.64826e-08
8.23476e-07
-5.14953e-08
-2.65728e-08
8.17092e-07
-7.34426e-08
-2.66612e-08
8.03952e-07
-9.03056e-08
-2.65116e-08
7.82402e-07
-2.57737e-08
7.46902e-07
-9.86879e-08
9.02003e-08
-4.97493e-08
7.33469e-07
-9.8163e-08
7.35478e-08
-5.13553e-08
7.7225e-07
5.16412e-08
-5.17578e-08
7.95903e-07
2.65728e-08
-5.16412e-08
8.10201e-07
4.8767e-16
-5.14953e-08
8.17092e-07
-2.65728e-08
-5.14953e-08
8.17092e-07
-5.16412e-08
-5.16412e-08
8.10201e-07
-7.35477e-08
-5.17578e-08
7.95903e-07
-9.02003e-08
-5.13553e-08
7.7225e-07
-4.97493e-08
7.33469e-07
-9.8163e-08
8.97369e-08
-6.98426e-08
7.05419e-07
-9.6924e-08
7.35174e-08
-7.25778e-08
7.50826e-07
5.17578e-08
-7.35174e-08
7.79011e-07
2.66612e-08
-7.35478e-08
7.95903e-07
-1.91273e-16
-7.34426e-08
8.03952e-07
-2.66612e-08
-7.34426e-08
8.03952e-07
-5.17578e-08
-7.35477e-08
7.95903e-07
-7.35174e-08
-7.35174e-08
7.79011e-07
-8.97369e-08
-7.25778e-08
7.50826e-07
-6.98426e-08
7.05419e-07
-9.6924e-08
8.78659e-08
-8.34743e-08
6.60266e-07
-9.41097e-08
7.25778e-08
-8.78659e-08
7.15301e-07
5.13553e-08
-8.97369e-08
7.50826e-07
2.65116e-08
-9.02003e-08
7.7225e-07
-1.08828e-15
-9.03056e-08
7.82402e-07
-2.65116e-08
-9.03056e-08
7.82402e-07
-5.13553e-08
-9.02003e-08
7.7225e-07
-7.25778e-08
-8.97369e-08
7.50826e-07
-8.78659e-08
-8.78659e-08
7.15301e-07
-8.34743e-08
6.60266e-07
-9.41097e-08
8.34743e-08
5.9513e-07
-8.82768e-08
-8.82768e-08
6.98426e-08
6.60266e-07
-9.41097e-08
4.97493e-08
7.05419e-07
-9.6924e-08
2.57737e-08
7.33469e-07
-9.8163e-08
-1.03837e-15
7.46902e-07
-9.86879e-08
-2.57737e-08
7.46902e-07
-9.86879e-08
-4.97493e-08
7.33469e-07
-9.8163e-08
-6.98426e-08
7.05419e-07
-9.6924e-08
-8.34743e-08
6.60266e-07
-9.41097e-08
5.9513e-07
-8.82768e-08
-8.82768e-08
3.53618e-08
3.53618e-08
5.94352e-07
-3.49729e-08
-3.49729e-08
3.15104e-08
4.07219e-08
6.63782e-07
-4.03872e-08
2.34064e-08
4.41839e-08
7.1284e-07
-4.35011e-08
1.2448e-08
4.61836e-08
7.43745e-07
-4.55012e-08
-3.79554e-16
4.71144e-08
7.58662e-07
-4.64267e-08
-1.2448e-08
4.71144e-08
7.58662e-07
-4.64267e-08
-2.34064e-08
4.61836e-08
7.43745e-07
-4.55012e-08
-3.15105e-08
4.41839e-08
7.1284e-07
-4.35011e-08
-3.53618e-08
4.07219e-08
6.63782e-07
-4.03872e-08
3.53618e-08
5.94352e-07
-3.49729e-08
-3.49729e-08
4.07219e-08
3.15105e-08
6.63782e-07
-4.03872e-08
3.5902e-08
3.5902e-08
7.24941e-07
2.65928e-08
3.88437e-08
7.65476e-07
1.41071e-08
4.05263e-08
7.90393e-07
1.44469e-15
4.12946e-08
8.02329e-07
-1.41071e-08
4.12946e-08
8.02329e-07
-2.65928e-08
4.05263e-08
7.90393e-07
-3.59019e-08
3.88437e-08
7.65476e-07
-4.07219e-08
3.59019e-08
7.24941e-07
3.15104e-08
6.63782e-07
-4.03872e-08
4.41839e-08
2.34064e-08
7.1284e-07
-4.35011e-08
3.88437e-08
2.65928e-08
7.65476e-07
2.86954e-08
2.86954e-08
7.99308e-07
1.51996e-08
2.98888e-08
8.20037e-07
1.36761e-15
3.04246e-08
8.30022e-07
-1.51996e-08
3.04246e-08
8.30022e-07
-2.86954e-08
2.98888e-08
8.20037e-07
-3.88437e-08
2.86954e-08
7.99308e-07
-4.41839e-08
2.65928e-08
7.65476e-07
2.34064e-08
7.1284e-07
-4.35011e-08
4.61836e-08
1.2448e-08
7.43745e-07
-4.55012e-08
4.05263e-08
1.41071e-08
7.90393e-07
2.98888e-08
1.51996e-08
8.20037e-07
1.58175e-08
1.58175e-08
8.38343e-07
1.12183e-15
1.60922e-08
8.47242e-07
-1.58175e-08
1.60922e-08
8.47242e-07
-2.98888e-08
1.58175e-08
8.38343e-07
-4.05263e-08
1.51996e-08
8.20037e-07
-4.61836e-08
1.41071e-08
7.90393e-07
1.2448e-08
7.43745e-07
-4.55012e-08
4.71144e-08
5.15719e-16
7.58662e-07
-4.64267e-08
4.12946e-08
2.29682e-15
8.02329e-07
3.04246e-08
1.43308e-15
8.30022e-07
1.60922e-08
8.8634e-16
8.47242e-07
1.06607e-15
1.04299e-15
8.5566e-07
-1.60922e-08
1.28604e-15
8.5566e-07
-3.04246e-08
1.20104e-15
8.47242e-07
-4.12946e-08
6.00436e-17
8.30022e-07
-4.71144e-08
-2.14295e-15
8.02329e-07
-2.17575e-15
7.58662e-07
-4.64267e-08
4.71144e-08
-1.2448e-08
7.58662e-07
-4.64267e-08
4.12946e-08
-1.41071e-08
8.02329e-07
3.04246e-08
-1.51996e-08
8.30022e-07
1.60922e-08
-1.58175e-08
8.47242e-07
1.3433e-15
-1.60922e-08
8.5566e-07
-1.60922e-08
-1.60922e-08
8.5566e-07
-3.04246e-08
-1.58175e-08
8.47242e-07
-4.12946e-08
-1.51996e-08
8.30022e-07
-4.71144e-08
-1.41071e-08
8.02329e-07
-1.2448e-08
7.58662e-07
-4.64267e-08
4.61836e-08
-2.34064e-08
7.43745e-07
-4.55012e-08
4.05263e-08
-2.65928e-08
7.90393e-07
2.98888e-08
-2.86954e-08
8.20037e-07
1.58175e-08
-2.98888e-08
8.38343e-07
1.37136e-15
-3.04246e-08
8.47242e-07
-1.58175e-08
-3.04246e-08
8.47242e-07
-2.98888e-08
-2.98888e-08
8.38343e-07
-4.05263e-08
-2.86954e-08
8.20037e-07
-4.61836e-08
-2.65928e-08
7.90393e-07
-2.34064e-08
7.43745e-07
-4.55012e-08
4.41839e-08
-3.15105e-08
7.1284e-07
-4.35011e-08
3.88437e-08
-3.59019e-08
7.65476e-07
2.86954e-08
-3.88437e-08
7.99308e-07
1.51996e-08
-4.05263e-08
8.20037e-07
5.35229e-16
-4.12946e-08
8.30022e-07
-1.51996e-08
-4.12946e-08
8.30022e-07
-2.86954e-08
-4.05263e-08
8.20037e-07
-3.88437e-08
-3.88437e-08
7.99308e-07
-4.41839e-08
-3.5902e-08
7.65476e-07
-3.15105e-08
7.1284e-07
-4.35011e-08
4.07219e-08
-3.53618e-08
6.63782e-07
-4.03872e-08
3.59019e-08
-4.07219e-08
7.24941e-07
2.65928e-08
-4.41839e-08
7.65476e-07
1.41071e-08
-4.61836e-08
7.90393e-07
-1.38565e-15
-4.71144e-08
8.02329e-07
-1.41071e-08
-4.71144e-08
8.02329e-07
-2.65928e-08
-4.61836e-08
7.90393e-07
-3.5902e-08
-4.41839e-08
7.65476e-07
-4.07219e-08
-4.07219e-08
7.24941e-07
-3.53618e-08
6.63782e-07
-4.03872e-08
3.53618e-08
5.94352e-07
-3.49729e-08
-3.49729e-08
3.15105e-08
6.63782e-07
-4.03872e-08
2.34064e-08
7.1284e-07
-4.35011e-08
1.2448e-08
7.43745e-07
-4.55012e-08
-1.85901e-15
7.58662e-07
-4.64267e-08
-1.2448e-08
7.58662e-07
-4.64267e-08
-2.34064e-08
7.43745e-07
-4.55012e-08
-3.15105e-08
7.1284e-07
-4.35011e-08
-3.53618e-08
6.63782e-07
-4.03872e-08
5.94352e-07
-3.49729e-08
-3.49729e-08
1.50058e-08
1.50058e-08
5.92382e-07
-1.40208e-08
-1.40208e-08
1.38716e-08
1.80279e-08
6.6357e-07
-1.66809e-08
1.05869e-08
2.01789e-08
7.14408e-07
-1.84618e-08
5.72313e-09
2.15456e-08
7.46724e-07
-1.96603e-08
-3.82687e-17
2.2201e-08
7.62409e-07
-2.02245e-08
-5.72313e-09
2.2201e-08
7.62409e-07
-2.02245e-08
-1.05869e-08
2.15456e-08
7.46724e-07
-1.96603e-08
-1.38716e-08
2.01789e-08
7.14408e-07
-1.84618e-08
-1.50058e-08
1.80279e-08
6.6357e-07
-1.66809e-08
1.50058e-08
5.92382e-07
-1.40208e-08
-1.40208e-08
1.80279e-08
1.38716e-08
6.6357e-07
-1.66809e-08
1.66523e-08
1.66523e-08
7.27692e-07
1.27149e-08
1.8665e-08
7.70927e-07
6.86537e-09
1.99132e-08
7.97875e-07
1.58295e-15
2.05065e-08
8.10888e-07
-6.86537e-09
2.05065e-08
8.10888e-07
-1.27149e-08
1.99132e-08
7.97875e-07
-1.66523e-08
1.8665e-08
7.70927e-07
-1.80279e-08
1.66523e-08
7.27692e-07
1.38716e-08
6.6357e-07
-1.66809e-08
2.01789e-08
1.05869e-08
7.14408e-07
-1.84618e-08
1.8665e-08
1.27149e-08
7.70927e-07
1.42443e-08
1.42443e-08
8.08149e-07
7.68239e-09
1.51769e-08
8.31335e-07
1.38713e-15
1.56138e-08
8.42597e-07
-7.68239e-09
1.56138e-08
8.42597e-07
-1.42443e-08
1.51769e-08
8.31335e-07
-1.8665e-08
1.42443e-08
8.08149e-07
-2.01789e-08
1.27149e-08
7.70927e-07
1.05869e-08
7.14408e-07
-1.84618e-08
2.15456e-08
5.72313e-09
7.46724e-07
-1.96603e-08
1.99132e-08
6.86537e-09
7.97875e-07
1.51769e-08
7.68239e-09
8.31335e-07
8.17743e-09
8.17743e-09
8.52342e-07
9.61254e-16
8.4074e-09
8.62626e-07
-8.17742e-09
8.4074e-09
8.62626e-07
-1.51769e-08
8.17743e-09
8.52342e-07
-1.99132e-08
7.68239e-09
8.31335e-07
-2.15456e-08
6.86537e-09
7.97875e-07
5.72313e-09
7.46724e-07
-1.96603e-08
2.2201e-08
6.22338e-16
7.62409e-07
-2.02245e-08
2.05065e-08
2.17827e-15
8.10888e-07
1.56138e-08
1.79719e-15
8.42597e-07
8.4074e-09
1.15534e-15
8.62626e-07
8.20471e-16
1.11358e-15
8.72475e-07
-8.4074e-09
1.16936e-15
8.72475e-07
-1.56138e-08
1.0172e-15
8.62626e-07
-2.05065e-08
6.016e-17
8.42597e-07
-2.2201e-08
-1.21341e-15
8.10888e-07
-8.17456e-16
7.62409e-07
-2.02245e-08
2.2201e-08
-5.72313e-09
7.62409e-07
-2.02245e-08
2.05065e-08
-6.86537e-09
8.10888e-07
1.56138e-08
-7.68239e-09
8.42597e-07
8.4074e-09
-8.17742e-09
8.62626e-07
9.20641e-16
-8.4074e-09
8.72475e-07
-8.4074e-09
-8.4074e-09
8.72475e-07
-1.56138e-08
-8.17742e-09
8.62626e-07
-2.05065e-08
-7.68239e-09
8.42597e-07
-2.2201e-08
-6.86537e-09
8.10888e-07
-5.72313e-09
7.62409e-07
-2.02245e-08
2.15456e-08
-1.05869e-08
7.46724e-07
-1.96603e-08
1.99132e-08
-1.27149e-08
7.97875e-07
1.51769e-08
-1.42443e-08
8.31335e-07
8.17743e-09
-1.51769e-08
8.52342e-07
7.56803e-16
-1.56138e-08
8.62626e-07
-8.17742e-09
-1.56138e-08
8.62626e-07
-1.51769e-08
-1.51769e-08
8.52342e-07
-1.99132e-08
-1.42443e-08
8.31335e-07
-2.15456e-08
-1.27149e-08
7.97875e-07
-1.05869e-08
7.46724e-07
-1.96603e-08
2.01789e-08
-1.38716e-08
7.14408e-07
-1.84618e-08
1.8665e-08
-1.66523e-08
7.70927e-07
1.42443e-08
-1.8665e-08
8.08149e-07
7.68239e-09
-1.99132e-08
8.31335e-07
-4.3813e-17
-2.05065e-08
8.42597e-07
-7.68239e-09
-2.05065e-08
8.42597e-07
-1.42443e-08
-1.99132e-08
8.31335e-07
-1.8665e-08
-1.8665e-08
8.08149e-07
-2.01789e-08
-1.66523e-08
7.70927e-07
-1.38716e-08
7.14408e-07
-1.84618e-08
1.80279e-08
-1.50058e-08
6.6357e-07
-1.66809e-08
1.66523e-08
-1.80279e-08
7.27692e-07
1.27149e-08
-2.01789e-08
7.70927e-07
6.86537e-09
-2.15456e-08
7.97875e-07
-7.18675e-16
-2.2201e-08
8.10888e-07
-6.86537e-09
-2.2201e-08
8.10888e-07
-1.27149e-08
-2.15456e-08
7.97875e-07
-1.66523e-08
-2.01789e-08
7.70927e-07
-1.80279e-08
-1.80279e-08
7.27692e-07
-1.50058e-08
6.6357e-07
-1.66809e-08
1.50058e-08
5.92382e-07
-1.40208e-08
-1.40208e-08
1.38716e-08
6.6357e-07
-1.66809e-08
1.05869e-08
7.14408e-07
-1.84618e-08
5.72313e-09
7.46724e-07
-1.96603e-08
-4.56572e-16
7.62409e-07
-2.02245e-08
-5.72314e-09
7.62409e-07
-2.02245e-08
-1.05869e-08
7.46724e-07
-1.96603e-08
-1.38716e-08
7.14408e-07
-1.84618e-08
-1.50058e-08
6.6357e-07
-1.66809e-08
5.92382e-07
-1.40208e-08
-1.40208e-08
5.20145e-09
5.20145e-09
5.90833e-07
-4.42664e-09
-4.42664e-09
5.13845e-09
6.78855e-09
6.62528e-07
-5.68371e-09
4.09578e-09
8.00118e-09
7.14047e-07
-6.59712e-09
2.27078e-09
8.819e-09
7.46978e-07
-7.2482e-09
2.52797e-16
9.22099e-09
7.6302e-07
-7.56124e-09
-2.27078e-09
9.22099e-09
7.6302e-07
-7.56124e-09
-4.09578e-09
8.819e-09
7.46978e-07
-7.2482e-09
-5.13845e-09
8.00118e-09
7.14047e-07
-6.59712e-09
-5.20145e-09
6.78855e-09
6.62528e-07
-5.68371e-09
5.20145e-09
5.90833e-07
-4.42664e-09
-4.42664e-09
6.78855e-09
5.13845e-09
6.62528e-07
-5.68371e-09
6.70471e-09
6.70472e-09
7.2786e-07
5.33858e-09
7.91037e-09
7.72384e-07
2.9509e-09
8.69892e-09
8.00383e-07
6.82845e-16
9.08391e-09
8.13976e-07
-2.9509e-09
9.08391e-09
8.13976e-07
-5.33858e-09
8.69892e-09
8.00383e-07
-6.70471e-09
7.91037e-09
7.72384e-07
-6.78854e-09
6.70471e-09
7.2786e-07
5.13845e-09
6.62528e-07
-5.68371e-09
8.00118e-09
4.09578e-09
7.14047e-07
-6.59712e-09
7.91037e-09
5.33858e-09
7.72384e-07
6.28724e-09
6.28724e-09
8.11396e-07
3.46653e-09
6.89514e-09
8.35959e-07
5.18511e-16
7.18806e-09
8.47959e-07
-3.46653e-09
7.18806e-09
8.47959e-07
-6.28724e-09
6.89514e-09
8.35959e-07
-7.91037e-09
6.28724e-09
8.11396e-07
-8.00119e-09
5.33858e-09
7.72384e-07
4.09578e-09
7.14047e-07
-6.59712e-09
8.819e-09
2.27078e-09
7.46978e-07
-7.2482e-09
8.69892e-09
2.9509e-09
8.00383e-07
6.89514e-09
3.46653e-09
8.35959e-07
3.79409e-09
3.79409e-09
8.58544e-07
6.02214e-16
3.95073e-09
8.69657e-07
-3.79409e-09
3.95073e-09
8.69657e-07
-6.89514e-09
3.79409e-09
8.58544e-07
-8.69892e-09
3.46653e-09
8.35959e-07
-8.819e-09
2.9509e-09
8.00383e-07
2.27078e-09
7.46978e-07
-7.2482e-09
9.22099e-09
2.3947e-16
7.6302e-07
-7.56124e-09
9.08391e-09
1.11218e-15
8.13976e-07
7.18806e-09
7.89294e-16
8.47959e-07
3.95073e-09
5.67675e-16
8.69657e-07
8.3286e-16
7.48187e-16
8.80377e-07
-3.95073e-09
1.05852e-15
8.80377e-07
-7.18806e-09
1.1214e-15
8.69657e-07
-9.08391e-09
5.79914e-16
8.47959e-07
-9.22099e-09
-4.52228e-16
8.13976e-07
-8.35502e-16
7.6302e-07
-7.56124e-09
9.22099e-09
-2.27078e-09
7.6302e-07
-7.56124e-09
9.08391e-09
-2.9509e-09
8.13976e-07
7.18806e-09
-3.46653e-09
8.47959e-07
3.95073e-09
-3.79409e-09
8.69657e-07
1.18018e-15
-3.95073e-09
8.80377e-07
-3.95073e-09
-3.95073e-09
8.80377e-07
-7.18806e-09
-3.79409e-09
8.69657e-07
-9.08391e-09
-3.46653e-09
8.47959e-07
-9.22099e-09
-2.9509e-09
8.13976e-07
-2.27078e-09
7.6302e-07
-7.56124e-09
8.819e-09
-4.09578e-09
7.46978e-07
-7.2482e-09
8.69892e-09
-5.33858e-09
8.00383e-07
6.89514e-09
-6.28724e-09
8.35959e-07
3.79409e-09
-6.89514e-09
8.58544e-07
1.21807e-15
-7.18806e-09
8.69657e-07
-3.79409e-09
-7.18806e-09
8.69657e-07
-6.89514e-09
-6.89514e-09
8.58544e-07
-8.69892e-09
-6.28724e-09
8.35959e-07
-8.81899e-09
-5.33858e-09
8.00383e-07
-4.09578e-09
7.46978e-07
-7.2482e-09
8.00119e-09
-5.13845e-09
7.14047e-07
-6.59712e-09
7.91037e-09
-6.70471e-09
7.72384e-07
6.28724e-09
-7.91037e-09
8.11396e-07
3.46653e-09
-8.69892e-09
8.35959e-07
7.99864e-16
-9.08391e-09
8.47959e-07
-3.46653e-09
-9.08391e-09
8.47959e-07
-6.28724e-09
-8.69892e-09
8.35959e-07
-7.91037e-09
-7.91037e-09
8.11396e-07
-8.00118e-09
-6.70472e-09
7.72384e-07
-5.13845e-09
7.14047e-07
-6.59712e-09
6.78855e-09
-5.20145e-09
6.62528e-07
-5.68371e-09
6.70472e-09
-6.78855e-09
7.2786e-07
5.33858e-09
-8.00118e-09
7.72384e-07
2.9509e-09
-8.819e-09
8.00383e-07
7.80068e-18
-9.22099e-09
8.13976e-07
-2.9509e-09
-9.22099e-09
8.13976e-07
-5.33858e-09
-8.81899e-09
8.00383e-07
-6.70471e-09
-8.00118e-09
7.72384e-07
-6.78855e-09
-6.78855e-09
7.2786e-07
-5.20145e-09
6.62528e-07
-5.68371e-09
5.20145e-09
5.90833e-07
-4.42664e-09
-4.42664e-09
5.13845e-09
6.62528e-07
-5.68371e-09
4.09578e-09
7.14047e-07
-6.59712e-09
2.27078e-09
7.46978e-07
-7.2482e-09
-7.56683e-16
7.6302e-07
-7.56124e-09
-2.27078e-09
7.6302e-07
-7.56124e-09
-4.09578e-09
7.46978e-07
-7.2482e-09
-5.13845e-09
7.14047e-07
-6.59712e-09
-5.20145e-09
6.62528e-07
-5.68371e-09
5.90833e-07
-4.42664e-09
-4.42664e-09
1.44821e-09
1.44821e-09
5.90104e-07
-1.08385e-09
-1.08385e-09
1.55948e-09
2.11581e-09
6.61862e-07
-1.56091e-09
1.3087e-09
2.66272e-09
7.13564e-07
-1.92929e-09
7.47116e-10
3.05456e-09
7.46698e-07
-2.21293e-09
2.73181e-16
3.25153e-09
7.62867e-07
-2.35145e-09
-7.47116e-10
3.25154e-09
7.62867e-07
-2.35145e-09
-1.3087e-09
3.05456e-09
7.46698e-07
-2.21293e-09
-1.55948e-09
2.66272e-09
7.13564e-07
-1.92928e-09
-1.44821e-09
2.11581e-09
6.61862e-07
-1.56091e-09
1.4482e-09
5.90104e-07
-1.08385e-09
-1.08384e-09
2.11581e-09
1.55948e-09
6.61862e-07
-1.56091e-09
2.26329e-09
2.26329e-09
7.27565e-07
1.89021e-09
2.84299e-09
7.72577e-07
1.0725e-09
3.24345e-09
8.01012e-07
8.46111e-16
3.44404e-09
8.14856e-07
-1.0725e-09
3.44404e-09
8.14856e-07
-1.89021e-09
3.24346e-09
8.01012e-07
-2.26329e-09
2.84299e-09
7.72577e-07
-2.11581e-09
2.26329e-09
7.27565e-07
1.55948e-09
6.61862e-07
-1.56091e-09
2.66272e-09
1.3087e-09
7.13564e-07
-1.92929e-09
2.84299e-09
1.89021e-09
7.72577e-07
2.36384e-09
2.36384e-09
8.12354e-07
1.33513e-09
2.68368e-09
8.37548e-07
9.28319e-16
2.84222e-09
8.49896e-07
-1.33512e-09
2.84222e-09
8.49896e-07
-2.36384e-09
2.68368e-09
8.37548e-07
-2.84299e-09
2.36384e-09
8.12354e-07
-2.66272e-09
1.89021e-09
7.72577e-07
1.3087e-09
7.13564e-07
-1.92928e-09
3.05456e-09
7.47116e-10
7.46698e-07
-2.21293e-09
3.24346e-09
1.0725e-09
8.01012e-07
2.68368e-09
1.33512e-09
8.37548e-07
1.51072e-09
1.51072e-09
8.6089e-07
8.00345e-16
1.59724e-09
8.72413e-07
-1.51072e-09
1.59724e-09
8.72413e-07
-2.68368e-09
1.51072e-09
8.6089e-07
-3.24345e-09
1.33512e-09
8.37548e-07
-3.05456e-09
1.0725e-09
8.01012e-07
7.47115e-10
7.46698e-07
-2.21293e-09
3.25154e-09
2.62543e-16
7.62867e-07
-2.35145e-09
3.44404e-09
9.91755e-16
8.14856e-07
2.84222e-09
1.10724e-15
8.49896e-07
1.59724e-09
9.67628e-16
8.72413e-07
7.54739e-16
9.42581e-16
8.83571e-07
-1.59723e-09
9.19713e-16
8.83571e-07
-2.84222e-09
7.53397e-16
8.72413e-07
-3.44404e-09
4.71731e-16
8.49896e-07
-3.25153e-09
4.40884e-17
8.14856e-07
1.62527e-16
7.62867e-07
-2.35145e-09
3.25154e-09
-7.47116e-10
7.62867e-07
-2.35145e-09
3.44404e-09
-1.0725e-09
8.14856e-07
2.84222e-09
-1.33512e-09
8.49896e-07
1.59724e-09
-1.51072e-09
8.72413e-07
7.10324e-16
-1.59723e-09
8.83571e-07
-1.59723e-09
-1.59723e-09
8.83571e-07
-2.84222e-09
-1.51072e-09
8.72413e-07
-3.44404e-09
-1.33512e-09
8.49896e-07
-3.25153e-09
-1.0725e-09
8.14856e-07
-7.47115e-10
7.62867e-07
-2.35145e-09
3.05456e-09
-1.3087e-09
7.46698e-07
-2.21293e-09
3.24346e-09
-1.89021e-09
8.01012e-07
2.68368e-09
-2.36384e-09
8.37548e-07
1.51072e-09
-2.68368e-09
8.6089e-07
6.5796e-16
-2.84222e-09
8.72413e-07
-1.51072e-09
-2.84222e-09
8.72413e-07
-2.68368e-09
-2.68368e-09
8.6089e-07
-3.24345e-09
-2.36384e-09
8.37548e-07
-3.05456e-09
-1.89021e-09
8.01012e-07
-1.3087e-09
7.46698e-07
-2.21293e-09
2.66272e-09
-1.55948e-09
7.13564e-07
-1.92928e-09
2.84299e-09
-2.26329e-09
7.72577e-07
2.36384e-09
-2.84299e-09
8.12354e-07
1.33512e-09
-3.24345e-09
8.37548e-07
4.74924e-16
-3.44404e-09
8.49896e-07
-1.33512e-09
-3.44404e-09
8.49896e-07
-2.36384e-09
-3.24345e-09
8.37548e-07
-2.84299e-09
-2.84299e-09
8.12354e-07
-2.66272e-09
-2.26329e-09
7.72577e-07
-1.55948e-09
7.13564e-07
-1.92928e-09
2.11581e-09
-1.44821e-09
6.61862e-07
-1.56091e-09
2.26329e-09
-2.11581e-09
7.27565e-07
1.89021e-09
-2.66272e-09
7.72577e-07
1.0725e-09
-3.05456e-09
8.01012e-07
2.27515e-16
-3.25153e-09
8.14856e-07
-1.0725e-09
-3.25153e-09
8.14856e-07
-1.89021e-09
-3.05456e-09
8.01012e-07
-2.26329e-09
-2.66272e-09
7.72577e-07
-2.11581e-09
-2.11581e-09
7.27565e-07
-1.44821e-09
6.61862e-07
-1.56091e-09
1.44821e-09
5.90104e-07
-1.08385e-09
-1.08385e-09
1.55948e-09
6.61862e-07
-1.56091e-09
1.3087e-09
7.13564e-07
-1.92928e-09
7.47116e-10
7.46698e-07
-2.21293e-09
1.40204e-16
7.62867e-07
-2.35145e-09
-7.47116e-10
7.62867e-07
-2.35145e-09
-1.3087e-09
7.46698e-07
-2.21293e-09
-1.55948e-09
7.13564e-07
-1.92928e-09
-1.44821e-09
6.61862e-07
-1.56091e-09
5.90104e-07
-1.08385e-09
-1.08384e-09
3.37232e-10
3.37231e-10
5.89821e-07
-1.95491e-10
-1.95491e-10
4.11267e-10
5.75624e-10
6.61563e-07
-3.51398e-10
3.68747e-10
7.81488e-10
7.13304e-07
-4.79271e-10
2.17944e-10
9.36324e-10
7.46495e-07
-5.82615e-10
-9.45819e-17
1.01526e-09
7.62703e-07
-6.33377e-10
-2.17944e-10
1.01526e-09
7.62703e-07
-6.33377e-10
-3.68747e-10
9.36324e-10
7.46495e-07
-5.82614e-10
-4.11268e-10
7.81488e-10
7.13304e-07
-4.79271e-10
-3.37234e-10
5.75625e-10
6.61563e-07
-3.51398e-10
3.37232e-10
5.89821e-07
-1.95492e-10
-1.95491e-10
5.75624e-10
4.11266e-10
6.61563e-07
-3.51397e-10
6.77378e-10
6.77378e-10
7.27362e-07
5.95486e-10
9.07721e-10
7.72532e-07
3.47059e-10
1.07404e-09
8.01122e-07
-4.29718e-17
1.15889e-09
8.1506e-07
-3.47059e-10
1.15889e-09
8.1506e-07
-5.95487e-10
1.07404e-09
8.01122e-07
-6.7738e-10
9.07722e-10
7.72532e-07
-5.75625e-10
6.7738e-10
7.27362e-07
4.11266e-10
6.61563e-07
-3.51398e-10
7.81487e-10
3.68746e-10
7.13304e-07
-4.7927e-10
9.07719e-10
5.95486e-10
7.72532e-07
7.89943e-10
7.89944e-10
8.12589e-07
4.56796e-10
9.2705e-10
8.38028e-07
9.18959e-17
9.96449e-10
8.50516e-07
-4.56796e-10
9.96449e-10
8.50516e-07
-7.89943e-10
9.2705e-10
8.38028e-07
-9.0772e-10
7.89944e-10
8.12589e-07
-7.81487e-10
5.95487e-10
7.72532e-07
3.68746e-10
7.13304e-07
-4.79271e-10
9.36323e-10
2.17944e-10
7.46495e-07
-5.82614e-10
1.07403e-09
3.47059e-10
8.01122e-07
9.2705e-10
4.56797e-10
8.38028e-07
5.33402e-10
5.33402e-10
8.61677e-07
2.92476e-16
5.72002e-10
8.73371e-07
-5.33401e-10
5.72003e-10
8.73371e-07
-9.27049e-10
5.33402e-10
8.61677e-07
-1.07403e-09
4.56797e-10