/*--------------------------------*- C++ -*----------------------------------*\
| =========                 |                                                 |
| \\      /  F ield         | OpenFOAM: The Open Source CFD Toolbox           |
|  \\    /   O peration     | Version:  2412                                  |
|   \\  /    A nd           | Website:  www.openfoam.com                      |
|    \\/     M anipulation  |                                                 |
\*---------------------------------------------------------------------------*/
FoamFile
{
    version     2.0;
    format      ascii;
    arch        "LSB;label=32;scalar=64";
    class       volVectorField;
    location    "6";
    object      U;
}
// * * * * * * * * * * * * * * * * * * * * * * * * * * * * * * * * * * * * * //

dimensions      [0 1 -1 0 0 0 0];

internalField   nonuniform List<vector> 
15000
(
(0.00122281 0.00122281 0.0104272)
(0.000905639 0.00114821 0.0103933)
(0.000618407 0.00112342 0.010361)
(0.000363373 0.00109801 0.0103379)
(0.000119394 0.00108616 0.0103265)
(-0.000119394 0.00108616 0.0103265)
(-0.000363373 0.00109801 0.0103379)
(-0.000618407 0.00112342 0.010361)
(-0.000905639 0.00114821 0.0103933)
(-0.00122281 0.00122281 0.0104272)
(0.00114821 0.000905639 0.0103933)
(0.000856159 0.000856159 0.0103421)
(0.000586328 0.000819472 0.0103033)
(0.000341878 0.000792803 0.0102789)
(0.000112135 0.000779673 0.0102673)
(-0.000112135 0.000779673 0.0102673)
(-0.000341878 0.000792803 0.0102789)
(-0.000586328 0.000819472 0.0103033)
(-0.000856159 0.000856159 0.0103421)
(-0.00114821 0.000905639 0.0103933)
(0.00112342 0.000618407 0.010361)
(0.000819472 0.000586328 0.0103033)
(0.00055622 0.00055622 0.0102643)
(0.00032212 0.00053398 0.0102404)
(0.000105361 0.000522678 0.010229)
(-0.000105361 0.000522678 0.010229)
(-0.00032212 0.00053398 0.0102404)
(-0.00055622 0.00055622 0.0102643)
(-0.000819472 0.000586328 0.0103033)
(-0.00112342 0.000618407 0.010361)
(0.00109801 0.000363373 0.0103379)
(0.000792803 0.000341878 0.0102789)
(0.00053398 0.00032212 0.0102404)
(0.000307556 0.000307556 0.0102167)
(0.000100352 0.000300096 0.0102052)
(-0.000100352 0.000300096 0.0102052)
(-0.000307556 0.000307556 0.0102167)
(-0.00053398 0.00032212 0.0102404)
(-0.000792803 0.000341878 0.0102789)
(-0.00109801 0.000363373 0.0103379)
(0.00108616 0.000119394 0.0103265)
(0.000779673 0.000112135 0.0102673)
(0.000522678 0.000105361 0.010229)
(0.000300096 0.000100352 0.0102052)
(9.778e-05 9.778e-05 0.0101936)
(-9.778e-05 9.778e-05 0.0101936)
(-0.000300096 0.000100352 0.0102052)
(-0.000522678 0.000105361 0.010229)
(-0.000779673 0.000112135 0.0102673)
(-0.00108616 0.000119394 0.0103265)
(0.00108616 -0.000119394 0.0103265)
(0.000779673 -0.000112135 0.0102673)
(0.000522678 -0.000105361 0.010229)
(0.000300096 -0.000100352 0.0102052)
(9.778e-05 -9.778e-05 0.0101936)
(-9.778e-05 -9.778e-05 0.0101936)
(-0.000300096 -0.000100352 0.0102052)
(-0.000522678 -0.000105361 0.010229)
(-0.000779673 -0.000112135 0.0102673)
(-0.00108616 -0.000119394 0.0103265)
(0.00109801 -0.000363373 0.0103379)
(0.000792803 -0.000341878 0.0102789)
(0.00053398 -0.00032212 0.0102404)
(0.000307556 -0.000307556 0.0102167)
(0.000100352 -0.000300096 0.0102052)
(-0.000100352 -0.000300096 0.0102052)
(-0.000307556 -0.000307556 0.0102167)
(-0.00053398 -0.00032212 0.0102404)
(-0.000792803 -0.000341878 0.0102789)
(-0.00109801 -0.000363373 0.0103379)
(0.00112342 -0.000618407 0.010361)
(0.000819472 -0.000586328 0.0103033)
(0.00055622 -0.00055622 0.0102643)
(0.00032212 -0.00053398 0.0102404)
(0.000105361 -0.000522678 0.010229)
(-0.000105361 -0.000522678 0.010229)
(-0.00032212 -0.00053398 0.0102404)
(-0.00055622 -0.00055622 0.0102643)
(-0.000819472 -0.000586328 0.0103033)
(-0.00112342 -0.000618407 0.010361)
(0.00114821 -0.000905639 0.0103933)
(0.000856159 -0.000856159 0.0103421)
(0.000586328 -0.000819472 0.0103033)
(0.000341878 -0.000792803 0.0102789)
(0.000112135 -0.000779673 0.0102673)
(-0.000112135 -0.000779673 0.0102673)
(-0.000341878 -0.000792803 0.0102789)
(-0.000586328 -0.000819472 0.0103033)
(-0.000856159 -0.000856159 0.0103421)
(-0.00114821 -0.000905639 0.0103933)
(0.00122281 -0.00122281 0.0104272)
(0.000905639 -0.00114821 0.0103933)
(0.000618407 -0.00112342 0.010361)
(0.000363373 -0.00109801 0.0103379)
(0.000119394 -0.00108616 0.0103265)
(-0.000119394 -0.00108616 0.0103265)
(-0.000363373 -0.00109801 0.0103379)
(-0.000618407 -0.00112342 0.010361)
(-0.000905639 -0.00114821 0.0103933)
(-0.00122281 -0.00122281 0.0104272)
(0.000756844 0.000756844 0.0126393)
(0.000598834 0.000799387 0.0126196)
(0.000426377 0.000825327 0.0125355)
(0.000255143 0.000836237 0.0124512)
(8.44997e-05 0.000841496 0.0124027)
(-8.44997e-05 0.000841496 0.0124027)
(-0.000255143 0.000836237 0.0124512)
(-0.000426377 0.000825327 0.0125355)
(-0.000598834 0.000799387 0.0126196)
(-0.000756844 0.000756844 0.0126393)
(0.000799387 0.000598834 0.0126196)
(0.000621456 0.000621456 0.0124713)
(0.000437021 0.000629803 0.0122952)
(0.000258638 0.00063088 0.0121589)
(8.54298e-05 0.000631011 0.0120873)
(-8.54298e-05 0.000631011 0.0120873)
(-0.000258638 0.00063088 0.0121589)
(-0.000437021 0.000629803 0.0122952)
(-0.000621456 0.000621456 0.0124713)
(-0.000799387 0.000598834 0.0126196)
(0.000825327 0.000426377 0.0125355)
(0.000629803 0.000437021 0.0122952)
(0.000438504 0.000438504 0.012068)
(0.000257899 0.000436835 0.0119068)
(8.50274e-05 0.000435669 0.0118254)
(-8.50274e-05 0.000435669 0.0118254)
(-0.000257899 0.000436835 0.0119068)
(-0.000438504 0.000438504 0.012068)
(-0.000629803 0.000437021 0.0122952)
(-0.000825327 0.000426377 0.0125355)
(0.000836237 0.000255143 0.0124512)
(0.00063088 0.000258638 0.0121589)
(0.000436835 0.000257899 0.0119068)
(0.000256185 0.000256185 0.0117355)
(8.43908e-05 0.000255165 0.0116506)
(-8.43908e-05 0.000255165 0.0116506)
(-0.000256185 0.000256185 0.0117355)
(-0.000436835 0.000257899 0.0119068)
(-0.00063088 0.000258638 0.0121589)
(-0.000836237 0.000255143 0.0124512)
(0.000841496 8.44997e-05 0.0124027)
(0.000631011 8.54298e-05 0.0120873)
(0.000435669 8.50274e-05 0.0118254)
(0.000255165 8.43908e-05 0.0116506)
(8.40222e-05 8.40221e-05 0.0115646)
(-8.40221e-05 8.40221e-05 0.0115646)
(-0.000255165 8.43908e-05 0.0116506)
(-0.000435669 8.50274e-05 0.0118254)
(-0.000631011 8.54298e-05 0.0120873)
(-0.000841496 8.44997e-05 0.0124027)
(0.000841496 -8.44997e-05 0.0124027)
(0.000631011 -8.54298e-05 0.0120873)
(0.000435669 -8.50274e-05 0.0118254)
(0.000255165 -8.43908e-05 0.0116506)
(8.40222e-05 -8.40221e-05 0.0115646)
(-8.40221e-05 -8.40221e-05 0.0115646)
(-0.000255165 -8.43908e-05 0.0116506)
(-0.000435669 -8.50274e-05 0.0118254)
(-0.000631011 -8.54298e-05 0.0120873)
(-0.000841496 -8.44997e-05 0.0124027)
(0.000836237 -0.000255143 0.0124512)
(0.00063088 -0.000258638 0.0121589)
(0.000436835 -0.000257899 0.0119068)
(0.000256185 -0.000256185 0.0117355)
(8.43908e-05 -0.000255165 0.0116506)
(-8.43908e-05 -0.000255165 0.0116506)
(-0.000256185 -0.000256185 0.0117355)
(-0.000436835 -0.000257899 0.0119068)
(-0.00063088 -0.000258639 0.0121589)
(-0.000836237 -0.000255143 0.0124512)
(0.000825327 -0.000426377 0.0125355)
(0.000629803 -0.000437021 0.0122952)
(0.000438504 -0.000438504 0.012068)
(0.000257899 -0.000436835 0.0119068)
(8.50274e-05 -0.000435669 0.0118254)
(-8.50274e-05 -0.000435669 0.0118254)
(-0.000257899 -0.000436835 0.0119068)
(-0.000438504 -0.000438504 0.012068)
(-0.000629803 -0.000437021 0.0122952)
(-0.000825327 -0.000426377 0.0125355)
(0.000799387 -0.000598834 0.0126196)
(0.000621456 -0.000621456 0.0124713)
(0.000437021 -0.000629803 0.0122952)
(0.000258638 -0.00063088 0.0121589)
(8.54298e-05 -0.000631011 0.0120873)
(-8.54298e-05 -0.000631011 0.0120873)
(-0.000258638 -0.00063088 0.0121589)
(-0.000437021 -0.000629803 0.0122952)
(-0.000621456 -0.000621456 0.0124713)
(-0.000799387 -0.000598834 0.0126196)
(0.000756844 -0.000756844 0.0126393)
(0.000598834 -0.000799387 0.0126196)
(0.000426377 -0.000825327 0.0125355)
(0.000255143 -0.000836237 0.0124512)
(8.44997e-05 -0.000841496 0.0124027)
(-8.44997e-05 -0.000841496 0.0124027)
(-0.000255143 -0.000836237 0.0124512)
(-0.000426377 -0.000825327 0.0125355)
(-0.000598834 -0.000799387 0.0126196)
(-0.000756844 -0.000756844 0.0126393)
(0.000514161 0.000514161 0.0125121)
(0.000430638 0.000577918 0.0127549)
(0.000324204 0.000621852 0.0128297)
(0.000200679 0.000648296 0.0128322)
(6.76441e-05 0.000661277 0.0128213)
(-6.76441e-05 0.000661277 0.0128213)
(-0.000200679 0.000648296 0.0128322)
(-0.000324204 0.000621852 0.0128297)
(-0.000430638 0.000577918 0.0127549)
(-0.000514161 0.000514161 0.0125121)
(0.000577918 0.000430638 0.0127549)
(0.000482878 0.000482878 0.0128351)
(0.000359591 0.000515943 0.012779)
(0.000221126 0.000534675 0.0127023)
(7.44489e-05 0.00054352 0.0126554)
(-7.44489e-05 0.00054352 0.0126554)
(-0.000221126 0.000534675 0.0127023)
(-0.000359591 0.000515944 0.012779)
(-0.000482878 0.000482878 0.0128351)
(-0.000577918 0.000430638 0.0127549)
(0.000621852 0.000324204 0.0128297)
(0.000515943 0.000359591 0.012779)
(0.000382004 0.000382004 0.0126411)
(0.000233986 0.0003946 0.0125222)
(7.87027e-05 0.000400428 0.0124581)
(-7.87027e-05 0.000400428 0.0124581)
(-0.000233986 0.0003946 0.0125222)
(-0.000382004 0.000382004 0.0126411)
(-0.000515943 0.000359591 0.012779)
(-0.000621852 0.000324204 0.0128297)
(0.000648296 0.000200679 0.0128322)
(0.000534675 0.000221126 0.0127023)
(0.0003946 0.000233986 0.0125222)
(0.000241252 0.000241252 0.0123848)
(8.11048e-05 0.000244584 0.0123142)
(-8.11048e-05 0.000244584 0.0123142)
(-0.000241251 0.000241252 0.0123848)
(-0.000394599 0.000233986 0.0125222)
(-0.000534675 0.000221126 0.0127023)
(-0.000648296 0.000200679 0.0128322)
(0.000661277 6.76441e-05 0.0128213)
(0.00054352 7.44489e-05 0.0126554)
(0.000400428 7.87027e-05 0.0124581)
(0.000244584 8.11049e-05 0.0123142)
(8.21995e-05 8.21995e-05 0.0122415)
(-8.21995e-05 8.21995e-05 0.0122415)
(-0.000244584 8.11048e-05 0.0123142)
(-0.000400428 7.87027e-05 0.0124581)
(-0.00054352 7.44489e-05 0.0126554)
(-0.000661277 6.76441e-05 0.0128213)
(0.000661277 -6.76441e-05 0.0128213)
(0.00054352 -7.44489e-05 0.0126554)
(0.000400428 -7.87027e-05 0.0124581)
(0.000244584 -8.11048e-05 0.0123142)
(8.21995e-05 -8.21995e-05 0.0122415)
(-8.21995e-05 -8.21995e-05 0.0122415)
(-0.000244584 -8.11048e-05 0.0123142)
(-0.000400428 -7.87027e-05 0.0124581)
(-0.00054352 -7.44489e-05 0.0126554)
(-0.000661277 -6.76441e-05 0.0128213)
(0.000648296 -0.000200679 0.0128322)
(0.000534675 -0.000221126 0.0127023)
(0.000394599 -0.000233986 0.0125222)
(0.000241252 -0.000241251 0.0123848)
(8.11048e-05 -0.000244584 0.0123142)
(-8.11048e-05 -0.000244584 0.0123142)
(-0.000241252 -0.000241252 0.0123848)
(-0.0003946 -0.000233986 0.0125222)
(-0.000534675 -0.000221126 0.0127023)
(-0.000648296 -0.000200679 0.0128322)
(0.000621852 -0.000324204 0.0128297)
(0.000515944 -0.000359591 0.012779)
(0.000382004 -0.000382004 0.0126411)
(0.000233986 -0.000394599 0.0125222)
(7.87027e-05 -0.000400428 0.0124581)
(-7.87027e-05 -0.000400428 0.0124581)
(-0.000233986 -0.0003946 0.0125222)
(-0.000382004 -0.000382004 0.0126411)
(-0.000515943 -0.000359591 0.012779)
(-0.000621852 -0.000324204 0.0128297)
(0.000577918 -0.000430638 0.0127549)
(0.000482878 -0.000482878 0.0128351)
(0.000359591 -0.000515944 0.012779)
(0.000221126 -0.000534675 0.0127023)
(7.44489e-05 -0.00054352 0.0126554)
(-7.44489e-05 -0.00054352 0.0126554)
(-0.000221126 -0.000534675 0.0127023)
(-0.000359591 -0.000515943 0.012779)
(-0.000482878 -0.000482878 0.0128351)
(-0.000577918 -0.000430638 0.0127549)
(0.000514161 -0.000514161 0.0125121)
(0.000430638 -0.000577918 0.0127549)
(0.000324204 -0.000621852 0.0128297)
(0.000200679 -0.000648296 0.0128322)
(6.76441e-05 -0.000661277 0.0128213)
(-6.76441e-05 -0.000661277 0.0128213)
(-0.000200679 -0.000648296 0.0128322)
(-0.000324204 -0.000621852 0.0128297)
(-0.000430638 -0.000577918 0.0127549)
(-0.000514161 -0.000514161 0.0125121)
(0.000211957 0.000211957 0.0127052)
(0.000187894 0.000260646 0.013059)
(0.00014995 0.000296073 0.0132147)
(9.58736e-05 0.000320323 0.0132679)
(3.28694e-05 0.000332461 0.0132811)
(-3.28694e-05 0.000332461 0.0132811)
(-9.58736e-05 0.000320323 0.0132679)
(-0.00014995 0.000296073 0.0132147)
(-0.000187894 0.000260646 0.013059)
(-0.000211957 0.000211957 0.0127052)
(0.000260646 0.000187894 0.013059)
(0.0002331 0.0002331 0.0132644)
(0.000183529 0.00026609 0.0132902)
(0.000116937 0.000287489 0.0132622)
(4.00638e-05 0.000298093 0.0132379)
(-4.00638e-05 0.000298093 0.0132379)
(-0.000116937 0.000287489 0.0132622)
(-0.000183529 0.00026609 0.0132902)
(-0.0002331 0.0002331 0.0132644)
(-0.000260646 0.000187894 0.013059)
(0.000296073 0.00014995 0.0132147)
(0.00026609 0.000183529 0.0132902)
(0.000208903 0.000208903 0.0132306)
(0.00013279 0.000225302 0.0131569)
(4.54709e-05 0.000233373 0.0131135)
(-4.54709e-05 0.000233373 0.0131135)
(-0.00013279 0.000225302 0.0131569)
(-0.000208903 0.000208903 0.0132306)
(-0.00026609 0.000183529 0.0132902)
(-0.000296073 0.00014995 0.0132147)
(0.000320323 9.58736e-05 0.0132679)
(0.000287489 0.000116937 0.0132622)
(0.000225302 0.00013279 0.0131569)
(0.000143028 0.000143028 0.0130619)
(4.89563e-05 0.000148039 0.0130104)
(-4.89563e-05 0.000148039 0.0130104)
(-0.000143028 0.000143028 0.0130619)
(-0.000225302 0.00013279 0.0131569)
(-0.000287489 0.000116937 0.0132622)
(-0.000320323 9.58736e-05 0.0132679)
(0.000332461 3.28694e-05 0.0132811)
(0.000298093 4.00638e-05 0.0132379)
(0.000233373 4.54709e-05 0.0131135)
(0.000148039 4.89563e-05 0.0130104)
(5.06555e-05 5.06555e-05 0.0129563)
(-5.06555e-05 5.06555e-05 0.0129563)
(-0.000148039 4.89563e-05 0.0130104)
(-0.000233373 4.54709e-05 0.0131135)
(-0.000298093 4.00638e-05 0.0132379)
(-0.000332461 3.28694e-05 0.0132811)
(0.000332461 -3.28694e-05 0.0132811)
(0.000298093 -4.00638e-05 0.0132379)
(0.000233373 -4.54709e-05 0.0131135)
(0.000148039 -4.89563e-05 0.0130104)
(5.06555e-05 -5.06555e-05 0.0129563)
(-5.06555e-05 -5.06555e-05 0.0129563)
(-0.000148039 -4.89563e-05 0.0130104)
(-0.000233373 -4.54709e-05 0.0131135)
(-0.000298093 -4.00638e-05 0.0132379)
(-0.000332461 -3.28694e-05 0.0132811)
(0.000320323 -9.58736e-05 0.0132679)
(0.000287489 -0.000116937 0.0132622)
(0.000225302 -0.00013279 0.0131569)
(0.000143028 -0.000143028 0.0130619)
(4.89563e-05 -0.000148039 0.0130104)
(-4.89563e-05 -0.000148039 0.0130104)
(-0.000143028 -0.000143028 0.0130619)
(-0.000225302 -0.00013279 0.0131569)
(-0.000287489 -0.000116937 0.0132622)
(-0.000320323 -9.58736e-05 0.0132679)
(0.000296073 -0.00014995 0.0132147)
(0.00026609 -0.000183529 0.0132902)
(0.000208903 -0.000208903 0.0132306)
(0.00013279 -0.000225302 0.0131569)
(4.54709e-05 -0.000233373 0.0131135)
(-4.54709e-05 -0.000233373 0.0131135)
(-0.00013279 -0.000225302 0.0131569)
(-0.000208903 -0.000208903 0.0132306)
(-0.00026609 -0.000183529 0.0132902)
(-0.000296073 -0.00014995 0.0132147)
(0.000260646 -0.000187894 0.013059)
(0.0002331 -0.0002331 0.0132644)
(0.000183529 -0.00026609 0.0132902)
(0.000116937 -0.000287489 0.0132622)
(4.00638e-05 -0.000298093 0.0132379)
(-4.00638e-05 -0.000298093 0.0132379)
(-0.000116937 -0.000287489 0.0132622)
(-0.000183529 -0.00026609 0.0132902)
(-0.0002331 -0.0002331 0.0132644)
(-0.000260646 -0.000187894 0.013059)
(0.000211957 -0.000211957 0.0127052)
(0.000187894 -0.000260646 0.013059)
(0.00014995 -0.000296073 0.0132147)
(9.58736e-05 -0.000320323 0.0132679)
(3.28694e-05 -0.000332461 0.0132811)
(-3.28694e-05 -0.000332461 0.0132811)
(-9.58736e-05 -0.000320323 0.0132679)
(-0.00014995 -0.000296073 0.0132147)
(-0.000187894 -0.000260646 0.013059)
(-0.000211957 -0.000211957 0.0127052)
(8.8931e-05 8.8931e-05 0.0126315)
(8.13018e-05 0.000112847 0.0130483)
(6.75293e-05 0.000131725 0.0132571)
(4.41236e-05 0.000145363 0.013348)
(1.52995e-05 0.0001523 0.0133804)
(-1.52995e-05 0.0001523 0.0133804)
(-4.41236e-05 0.000145363 0.013348)
(-6.75293e-05 0.000131725 0.0132571)
(-8.13018e-05 0.000112847 0.0130483)
(-8.8931e-05 8.8931e-05 0.0126315)
(0.000112847 8.13018e-05 0.0130483)
(0.000106295 0.000106295 0.0133385)
(8.71549e-05 0.00012575 0.0134311)
(5.68774e-05 0.00013902 0.0134487)
(1.97113e-05 0.000145731 0.0134472)
(-1.97113e-05 0.000145731 0.0134472)
(-5.68774e-05 0.00013902 0.0134487)
(-8.7155e-05 0.00012575 0.0134311)
(-0.000106295 0.000106295 0.0133385)
(-0.000112847 8.13018e-05 0.0130483)
(0.000131725 6.75293e-05 0.0132571)
(0.00012575 8.7155e-05 0.0134311)
(0.000102924 0.000102924 0.0134465)
(6.70609e-05 0.000113582 0.0134226)
(2.32293e-05 0.000118936 0.0134038)
(-2.32293e-05 0.000118936 0.0134038)
(-6.70608e-05 0.000113582 0.0134226)
(-0.000102924 0.000102924 0.0134465)
(-0.00012575 8.7155e-05 0.0134311)
(-0.000131725 6.75293e-05 0.0132571)
(0.000145363 4.41236e-05 0.013348)
(0.00013902 5.68774e-05 0.0134487)
(0.000113582 6.70609e-05 0.0134226)
(7.38958e-05 7.38958e-05 0.0133792)
(2.55822e-05 7.7306e-05 0.013353)
(-2.55821e-05 7.7306e-05 0.013353)
(-7.38958e-05 7.38958e-05 0.0133792)
(-0.000113582 6.70609e-05 0.0134226)
(-0.00013902 5.68774e-05 0.0134487)
(-0.000145363 4.41236e-05 0.013348)
(0.0001523 1.52995e-05 0.0133804)
(0.000145731 1.97113e-05 0.0134472)
(0.000118936 2.32293e-05 0.0134038)
(7.7306e-05 2.55822e-05 0.013353)
(2.67515e-05 2.67515e-05 0.0133243)
(-2.67515e-05 2.67515e-05 0.0133243)
(-7.7306e-05 2.55822e-05 0.013353)
(-0.000118936 2.32293e-05 0.0134038)
(-0.000145731 1.97113e-05 0.0134472)
(-0.0001523 1.52995e-05 0.0133804)
(0.0001523 -1.52995e-05 0.0133804)
(0.000145731 -1.97113e-05 0.0134472)
(0.000118936 -2.32293e-05 0.0134038)
(7.7306e-05 -2.55821e-05 0.013353)
(2.67515e-05 -2.67515e-05 0.0133243)
(-2.67515e-05 -2.67515e-05 0.0133243)
(-7.7306e-05 -2.55821e-05 0.013353)
(-0.000118936 -2.32293e-05 0.0134038)
(-0.000145731 -1.97113e-05 0.0134472)
(-0.0001523 -1.52995e-05 0.0133804)
(0.000145363 -4.41236e-05 0.013348)
(0.00013902 -5.68774e-05 0.0134487)
(0.000113582 -6.70608e-05 0.0134226)
(7.38958e-05 -7.38958e-05 0.0133792)
(2.55822e-05 -7.7306e-05 0.013353)
(-2.55821e-05 -7.7306e-05 0.013353)
(-7.38958e-05 -7.38958e-05 0.0133792)
(-0.000113582 -6.70609e-05 0.0134226)
(-0.00013902 -5.68773e-05 0.0134487)
(-0.000145363 -4.41236e-05 0.013348)
(0.000131725 -6.75293e-05 0.0132571)
(0.00012575 -8.7155e-05 0.0134311)
(0.000102924 -0.000102924 0.0134465)
(6.70609e-05 -0.000113582 0.0134226)
(2.32293e-05 -0.000118936 0.0134038)
(-2.32293e-05 -0.000118936 0.0134038)
(-6.70609e-05 -0.000113582 0.0134226)
(-0.000102924 -0.000102924 0.0134465)
(-0.00012575 -8.71549e-05 0.0134311)
(-0.000131725 -6.75293e-05 0.0132571)
(0.000112847 -8.13018e-05 0.0130483)
(0.000106295 -0.000106295 0.0133385)
(8.7155e-05 -0.00012575 0.0134311)
(5.68774e-05 -0.00013902 0.0134487)
(1.97113e-05 -0.000145731 0.0134472)
(-1.97113e-05 -0.000145731 0.0134472)
(-5.68773e-05 -0.00013902 0.0134487)
(-8.71549e-05 -0.00012575 0.0134311)
(-0.000106295 -0.000106295 0.0133385)
(-0.000112847 -8.13018e-05 0.0130483)
(8.8931e-05 -8.8931e-05 0.0126315)
(8.13018e-05 -0.000112847 0.0130483)
(6.75293e-05 -0.000131725 0.0132571)
(4.41236e-05 -0.000145363 0.013348)
(1.52995e-05 -0.0001523 0.0133804)
(-1.52995e-05 -0.0001523 0.0133804)
(-4.41236e-05 -0.000145363 0.013348)
(-6.75293e-05 -0.000131725 0.0132571)
(-8.13018e-05 -0.000112847 0.0130483)
(-8.8931e-05 -8.8931e-05 0.0126315)
(2.98687e-05 2.98687e-05 0.0125811)
(2.91705e-05 4.0978e-05 0.013015)
(2.58174e-05 5.02115e-05 0.0132424)
(1.74309e-05 5.71996e-05 0.0133483)
(6.14621e-06 6.08039e-05 0.0133889)
(-6.1462e-06 6.08039e-05 0.0133889)
(-1.74309e-05 5.71996e-05 0.0133483)
(-2.58174e-05 5.02115e-05 0.0132424)
(-2.91705e-05 4.0978e-05 0.013015)
(-2.98687e-05 2.98687e-05 0.0125811)
(4.0978e-05 2.91705e-05 0.013015)
(4.16977e-05 4.16977e-05 0.0133375)
(3.61452e-05 5.20092e-05 0.0134603)
(2.43486e-05 5.93528e-05 0.0135006)
(8.56519e-06 6.31345e-05 0.0135111)
(-8.56519e-06 6.31345e-05 0.0135111)
(-2.43486e-05 5.93528e-05 0.0135006)
(-3.61452e-05 5.20092e-05 0.0134603)
(-4.16977e-05 4.16977e-05 0.0133375)
(-4.0978e-05 2.91705e-05 0.013015)
(5.02115e-05 2.58174e-05 0.0132424)
(5.20092e-05 3.61452e-05 0.0134603)
(4.48838e-05 4.48838e-05 0.0135145)
(3.01444e-05 5.10127e-05 0.0135185)
(1.05884e-05 5.41463e-05 0.013514)
(-1.05884e-05 5.41463e-05 0.013514)
(-3.01444e-05 5.10127e-05 0.0135185)
(-4.48838e-05 4.48838e-05 0.0135145)
(-5.20092e-05 3.61452e-05 0.0134603)
(-5.02115e-05 2.58174e-05 0.0132424)
(5.71996e-05 1.74309e-05 0.0133483)
(5.93528e-05 2.43486e-05 0.0135006)
(5.10127e-05 3.01444e-05 0.0135185)
(3.41644e-05 3.41644e-05 0.0135057)
(1.19853e-05 3.62045e-05 0.0134951)
(-1.19853e-05 3.62045e-05 0.0134951)
(-3.41644e-05 3.41644e-05 0.0135057)
(-5.10127e-05 3.01444e-05 0.0135185)
(-5.93528e-05 2.43486e-05 0.0135006)
(-5.71996e-05 1.74309e-05 0.0133483)
(6.08039e-05 6.14621e-06 0.0133889)
(6.31345e-05 8.5652e-06 0.0135111)
(5.41463e-05 1.05884e-05 0.013514)
(3.62045e-05 1.19853e-05 0.0134951)
(1.26916e-05 1.26916e-05 0.0134824)
(-1.26916e-05 1.26916e-05 0.0134824)
(-3.62045e-05 1.19853e-05 0.0134951)
(-5.41463e-05 1.05884e-05 0.013514)
(-6.31345e-05 8.56519e-06 0.0135111)
(-6.08038e-05 6.1462e-06 0.0133889)
(6.08039e-05 -6.1462e-06 0.0133889)
(6.31345e-05 -8.56518e-06 0.0135111)
(5.41463e-05 -1.05884e-05 0.013514)
(3.62045e-05 -1.19853e-05 0.0134951)
(1.26916e-05 -1.26916e-05 0.0134824)
(-1.26916e-05 -1.26916e-05 0.0134824)
(-3.62045e-05 -1.19853e-05 0.0134951)
(-5.41463e-05 -1.05884e-05 0.013514)
(-6.31345e-05 -8.56519e-06 0.0135111)
(-6.08038e-05 -6.14621e-06 0.0133889)
(5.71996e-05 -1.74309e-05 0.0133483)
(5.93528e-05 -2.43486e-05 0.0135006)
(5.10127e-05 -3.01444e-05 0.0135185)
(3.41644e-05 -3.41644e-05 0.0135057)
(1.19853e-05 -3.62045e-05 0.0134951)
(-1.19853e-05 -3.62045e-05 0.0134951)
(-3.41644e-05 -3.41644e-05 0.0135057)
(-5.10127e-05 -3.01444e-05 0.0135185)
(-5.93528e-05 -2.43486e-05 0.0135006)
(-5.71996e-05 -1.74309e-05 0.0133483)
(5.02115e-05 -2.58174e-05 0.0132424)
(5.20092e-05 -3.61452e-05 0.0134603)
(4.48838e-05 -4.48838e-05 0.0135145)
(3.01444e-05 -5.10127e-05 0.0135185)
(1.05884e-05 -5.41463e-05 0.013514)
(-1.05884e-05 -5.41463e-05 0.013514)
(-3.01444e-05 -5.10127e-05 0.0135185)
(-4.48838e-05 -4.48838e-05 0.0135145)
(-5.20092e-05 -3.61452e-05 0.0134603)
(-5.02115e-05 -2.58173e-05 0.0132424)
(4.0978e-05 -2.91705e-05 0.013015)
(4.16977e-05 -4.16977e-05 0.0133375)
(3.61452e-05 -5.20092e-05 0.0134603)
(2.43486e-05 -5.93528e-05 0.0135006)
(8.56519e-06 -6.31345e-05 0.0135111)
(-8.56519e-06 -6.31345e-05 0.0135111)
(-2.43486e-05 -5.93528e-05 0.0135006)
(-3.61452e-05 -5.20092e-05 0.0134603)
(-4.16977e-05 -4.16977e-05 0.0133375)
(-4.0978e-05 -2.91705e-05 0.013015)
(2.98687e-05 -2.98687e-05 0.0125811)
(2.91705e-05 -4.0978e-05 0.013015)
(2.58174e-05 -5.02115e-05 0.0132424)
(1.74309e-05 -5.71996e-05 0.0133483)
(6.1462e-06 -6.08038e-05 0.0133889)
(-6.1462e-06 -6.08038e-05 0.0133889)
(-1.74309e-05 -5.71996e-05 0.0133483)
(-2.58173e-05 -5.02115e-05 0.0132424)
(-2.91705e-05 -4.0978e-05 0.013015)
(-2.98687e-05 -2.98687e-05 0.0125811)
(7.95813e-06 7.95812e-06 0.0125596)
(8.48451e-06 1.21902e-05 0.0129978)
(8.13537e-06 1.59109e-05 0.0132317)
(5.69659e-06 1.88869e-05 0.0133434)
(2.051e-06 2.04424e-05 0.0133874)
(-2.051e-06 2.04424e-05 0.0133874)
(-5.69659e-06 1.8887e-05 0.0133434)
(-8.13539e-06 1.59109e-05 0.0132317)
(-8.48451e-06 1.21902e-05 0.0129978)
(-7.95812e-06 7.95813e-06 0.0125596)
(1.21902e-05 8.48451e-06 0.0129978)
(1.36594e-05 1.36594e-05 0.013332)
(1.26387e-05 1.81938e-05 0.0134673)
(8.8141e-06 2.15847e-05 0.0135178)
(3.15296e-06 2.33653e-05 0.0135339)
(-3.15295e-06 2.33653e-05 0.0135339)
(-8.81409e-06 2.15847e-05 0.0135178)
(-1.26387e-05 1.81938e-05 0.0134673)
(-1.36594e-05 1.36594e-05 0.013332)
(-1.21902e-05 8.48452e-06 0.0129978)
(1.59109e-05 8.13538e-06 0.0132317)
(1.81938e-05 1.26387e-05 0.0134673)
(1.66793e-05 1.66793e-05 0.0135391)
(1.15767e-05 1.96376e-05 0.0135564)
(4.12845e-06 2.11806e-05 0.0135589)
(-4.12843e-06 2.11806e-05 0.0135589)
(-1.15767e-05 1.96376e-05 0.0135564)
(-1.66793e-05 1.66793e-05 0.0135391)
(-1.81938e-05 1.26387e-05 0.0134673)
(-1.5911e-05 8.13539e-06 0.0132317)
(1.88869e-05 5.69659e-06 0.0133434)
(2.15847e-05 8.8141e-06 0.0135178)
(1.96376e-05 1.15767e-05 0.0135564)
(1.35711e-05 1.35711e-05 0.0135588)
(4.82939e-06 1.4604e-05 0.0135561)
(-4.82938e-06 1.4604e-05 0.0135561)
(-1.35711e-05 1.35711e-05 0.0135588)
(-1.96376e-05 1.15767e-05 0.0135564)
(-2.15847e-05 8.81409e-06 0.0135178)
(-1.8887e-05 5.69659e-06 0.0133434)
(2.04424e-05 2.051e-06 0.0133874)
(2.33653e-05 3.15296e-06 0.0135339)
(2.11806e-05 4.12845e-06 0.0135589)
(1.4604e-05 4.82939e-06 0.0135561)
(5.1913e-06 5.1913e-06 0.0135515)
(-5.19129e-06 5.1913e-06 0.0135515)
(-1.46039e-05 4.82939e-06 0.0135561)
(-2.11806e-05 4.12844e-06 0.0135589)
(-2.33653e-05 3.15295e-06 0.0135339)
(-2.04424e-05 2.051e-06 0.0133874)
(2.04424e-05 -2.051e-06 0.0133874)
(2.33653e-05 -3.15295e-06 0.0135339)
(2.11806e-05 -4.12843e-06 0.0135589)
(1.4604e-05 -4.82938e-06 0.0135561)
(5.1913e-06 -5.19129e-06 0.0135515)
(-5.19129e-06 -5.19129e-06 0.0135515)
(-1.46039e-05 -4.82938e-06 0.0135561)
(-2.11806e-05 -4.12844e-06 0.0135589)
(-2.33653e-05 -3.15295e-06 0.0135339)
(-2.04424e-05 -2.05099e-06 0.0133874)
(1.8887e-05 -5.69659e-06 0.0133434)
(2.15847e-05 -8.81409e-06 0.0135178)
(1.96376e-05 -1.15767e-05 0.0135564)
(1.35711e-05 -1.35711e-05 0.0135588)
(4.82939e-06 -1.46039e-05 0.0135561)
(-4.82938e-06 -1.46039e-05 0.0135561)
(-1.35711e-05 -1.35711e-05 0.0135588)
(-1.96376e-05 -1.15767e-05 0.0135564)
(-2.15847e-05 -8.81409e-06 0.0135178)
(-1.88869e-05 -5.69658e-06 0.0133434)
(1.59109e-05 -8.13538e-06 0.0132317)
(1.81938e-05 -1.26387e-05 0.0134673)
(1.66793e-05 -1.66793e-05 0.0135391)
(1.15767e-05 -1.96376e-05 0.0135564)
(4.12844e-06 -2.11806e-05 0.0135589)
(-4.12844e-06 -2.11806e-05 0.0135589)
(-1.15767e-05 -1.96376e-05 0.0135564)
(-1.66793e-05 -1.66793e-05 0.0135391)
(-1.81938e-05 -1.26387e-05 0.0134673)
(-1.59109e-05 -8.13538e-06 0.0132317)
(1.21902e-05 -8.48452e-06 0.0129978)
(1.36594e-05 -1.36594e-05 0.013332)
(1.26387e-05 -1.81938e-05 0.0134673)
(8.81409e-06 -2.15847e-05 0.0135178)
(3.15295e-06 -2.33653e-05 0.0135339)
(-3.15295e-06 -2.33653e-05 0.0135339)
(-8.81409e-06 -2.15847e-05 0.0135178)
(-1.26387e-05 -1.81938e-05 0.0134673)
(-1.36594e-05 -1.36594e-05 0.013332)
(-1.21902e-05 -8.48451e-06 0.0129978)
(7.95813e-06 -7.95812e-06 0.0125596)
(8.48452e-06 -1.21902e-05 0.0129978)
(8.13539e-06 -1.59109e-05 0.0132317)
(5.69659e-06 -1.88869e-05 0.0133434)
(2.051e-06 -2.04424e-05 0.0133874)
(-2.05099e-06 -2.04424e-05 0.0133874)
(-5.69658e-06 -1.88869e-05 0.0133434)
(-8.13537e-06 -1.59109e-05 0.0132317)
(-8.48452e-06 -1.21902e-05 0.0129978)
(-7.95813e-06 -7.95812e-06 0.0125596)
(1.72789e-06 1.72789e-06 0.0125506)
(2.10669e-06 3.11234e-06 0.0129894)
(2.25692e-06 4.38808e-06 0.0132251)
(1.64963e-06 5.46928e-06 0.0133388)
(6.10123e-07 6.0386e-06 0.0133839)
(-6.10125e-07 6.0386e-06 0.0133839)
(-1.64963e-06 5.46927e-06 0.0133388)
(-2.25692e-06 4.38807e-06 0.0132251)
(-2.10668e-06 3.11233e-06 0.0129894)
(-1.72788e-06 1.72789e-06 0.0125506)
(3.11234e-06 2.10668e-06 0.0129894)
(3.94603e-06 3.94602e-06 0.0133271)
(3.93035e-06 5.64088e-06 0.0134671)
(2.84022e-06 6.96388e-06 0.0135216)
(1.0344e-06 7.66962e-06 0.0135399)
(-1.03441e-06 7.66962e-06 0.0135399)
(-2.84023e-06 6.96388e-06 0.0135216)
(-3.93035e-06 5.64088e-06 0.0134671)
(-3.94601e-06 3.94602e-06 0.0133271)
(-3.11232e-06 2.10668e-06 0.0129894)
(4.38808e-06 2.25692e-06 0.0132251)
(5.64088e-06 3.93035e-06 0.0134671)
(5.50942e-06 5.50941e-06 0.013546)
(3.94975e-06 6.71193e-06 0.0135689)
(1.42999e-06 7.34984e-06 0.0135746)
(-1.42999e-06 7.34984e-06 0.0135746)
(-3.94975e-06 6.71193e-06 0.0135689)
(-5.50941e-06 5.50942e-06 0.013546)
(-5.64087e-06 3.93036e-06 0.0134671)
(-4.38807e-06 2.25692e-06 0.0132251)
(5.46928e-06 1.64964e-06 0.0133388)
(6.96388e-06 2.84023e-06 0.0135216)
(6.71193e-06 3.94975e-06 0.0135689)
(4.78177e-06 4.78177e-06 0.0135781)
(1.72543e-06 5.22047e-06 0.0135789)
(-1.72543e-06 5.22047e-06 0.0135789)
(-4.78177e-06 4.78177e-06 0.0135781)
(-6.71192e-06 3.94975e-06 0.0135689)
(-6.96387e-06 2.84023e-06 0.0135216)
(-5.46927e-06 1.64963e-06 0.0133388)
(6.0386e-06 6.10126e-07 0.0133839)
(7.66961e-06 1.0344e-06 0.0135399)
(7.34984e-06 1.42999e-06 0.0135746)
(5.22047e-06 1.72543e-06 0.0135789)
(1.8809e-06 1.8809e-06 0.0135782)
(-1.8809e-06 1.8809e-06 0.0135782)
(-5.22047e-06 1.72543e-06 0.0135789)
(-7.34984e-06 1.42999e-06 0.0135746)
(-7.66961e-06 1.03441e-06 0.0135399)
(-6.03859e-06 6.10122e-07 0.0133839)
(6.0386e-06 -6.10127e-07 0.0133839)
(7.66961e-06 -1.03441e-06 0.0135399)
(7.34984e-06 -1.42999e-06 0.0135746)
(5.22048e-06 -1.72543e-06 0.0135789)
(1.8809e-06 -1.88089e-06 0.0135782)
(-1.8809e-06 -1.88089e-06 0.0135782)
(-5.22047e-06 -1.72543e-06 0.0135789)
(-7.34984e-06 -1.42999e-06 0.0135746)
(-7.66961e-06 -1.03441e-06 0.0135399)
(-6.03859e-06 -6.10126e-07 0.0133839)
(5.46927e-06 -1.64964e-06 0.0133388)
(6.96388e-06 -2.84023e-06 0.0135216)
(6.71193e-06 -3.94975e-06 0.0135689)
(4.78177e-06 -4.78177e-06 0.0135781)
(1.72543e-06 -5.22047e-06 0.0135789)
(-1.72543e-06 -5.22047e-06 0.0135789)
(-4.78177e-06 -4.78176e-06 0.0135781)
(-6.71193e-06 -3.94975e-06 0.0135689)
(-6.96387e-06 -2.84023e-06 0.0135216)
(-5.46927e-06 -1.64963e-06 0.0133388)
(4.38807e-06 -2.25691e-06 0.0132251)
(5.64088e-06 -3.93035e-06 0.0134671)
(5.50942e-06 -5.50941e-06 0.013546)
(3.94975e-06 -6.71192e-06 0.0135689)
(1.42999e-06 -7.34983e-06 0.0135746)
(-1.42999e-06 -7.34983e-06 0.0135746)
(-3.94975e-06 -6.71192e-06 0.0135689)
(-5.50942e-06 -5.50941e-06 0.013546)
(-5.64087e-06 -3.93034e-06 0.0134671)
(-4.38806e-06 -2.25691e-06 0.0132251)
(3.11233e-06 -2.10668e-06 0.0129894)
(3.94602e-06 -3.94601e-06 0.0133271)
(3.93035e-06 -5.64087e-06 0.0134671)
(2.84023e-06 -6.96387e-06 0.0135216)
(1.03441e-06 -7.66961e-06 0.0135399)
(-1.03441e-06 -7.66961e-06 0.0135399)
(-2.84023e-06 -6.96387e-06 0.0135216)
(-3.93035e-06 -5.64087e-06 0.0134671)
(-3.94601e-06 -3.946e-06 0.0133271)
(-3.11233e-06 -2.10668e-06 0.0129894)
(1.72789e-06 -1.72789e-06 0.0125506)
(2.10668e-06 -3.11233e-06 0.0129894)
(2.25692e-06 -4.38807e-06 0.0132251)
(1.64963e-06 -5.46927e-06 0.0133388)
(6.10125e-07 -6.03859e-06 0.0133839)