/*--------------------------------*- C++ -*----------------------------------*\
| =========                 |                                                 |
| \\      /  F ield         | OpenFOAM: The Open Source CFD Toolbox           |
|  \\    /   O peration     | Version:  2412                                  |
|   \\  /    A nd           | Website:  www.openfoam.com                      |
|    \\/     M anipulation  |                                                 |
\*---------------------------------------------------------------------------*/
FoamFile
{
    version     2.0;
    format      ascii;
    arch        "LSB;label=32;scalar=64";
    class       volVectorField;
    location    "4.9";
    object      U;
}
// * * * * * * * * * * * * * * * * * * * * * * * * * * * * * * * * * * * * * //

dimensions      [0 1 -1 0 0 0 0];

internalField   nonuniform List<vector> 
15000
(
(0.00121357 0.00121357 0.0104721)
(0.000897606 0.00113832 0.0104495)
(0.000612115 0.00111321 0.0104215)
(0.000359344 0.00108763 0.0103987)
(0.000118004 0.00107571 0.0103866)
(-0.000118004 0.00107571 0.0103866)
(-0.000359344 0.00108763 0.0103987)
(-0.000612115 0.00111321 0.0104215)
(-0.000897606 0.00113832 0.0104495)
(-0.00121357 0.00121357 0.0104721)
(0.00113832 0.000897606 0.0104495)
(0.000847354 0.000847354 0.010404)
(0.0005795 0.000810469 0.0103622)
(0.000337577 0.000783841 0.0103328)
(0.000110669 0.000770783 0.010318)
(-0.000110669 0.000770783 0.010318)
(-0.000337577 0.000783841 0.0103328)
(-0.0005795 0.000810469 0.0103622)
(-0.000847354 0.000847354 0.010404)
(-0.00113832 0.000897606 0.0104495)
(0.00111321 0.000612115 0.0104215)
(0.000810469 0.0005795 0.0103622)
(0.000549361 0.000549361 0.0103146)
(0.000317873 0.000527294 0.0102826)
(0.000103928 0.000516136 0.0102667)
(-0.000103928 0.000516136 0.0102667)
(-0.000317873 0.000527294 0.0102826)
(-0.000549361 0.000549361 0.0103146)
(-0.000810469 0.0005795 0.0103622)
(-0.00111321 0.000612115 0.0104215)
(0.00108763 0.000359344 0.0103987)
(0.000783841 0.000337577 0.0103328)
(0.000527294 0.000317873 0.0102826)
(0.000303481 0.000303481 0.0102495)
(9.89889e-05 0.000296146 0.0102332)
(-9.89889e-05 0.000296146 0.0102332)
(-0.000303481 0.000303481 0.0102495)
(-0.000527294 0.000317873 0.0102826)
(-0.000783841 0.000337577 0.0103328)
(-0.00108763 0.000359344 0.0103987)
(0.00107571 0.000118004 0.0103866)
(0.000770783 0.000110669 0.010318)
(0.000516136 0.000103928 0.0102667)
(0.000296146 9.89889e-05 0.0102332)
(9.64654e-05 9.64654e-05 0.0102168)
(-9.64654e-05 9.64654e-05 0.0102168)
(-0.000296146 9.89889e-05 0.0102332)
(-0.000516136 0.000103928 0.0102667)
(-0.000770783 0.000110669 0.010318)
(-0.00107571 0.000118004 0.0103866)
(0.00107571 -0.000118004 0.0103866)
(0.000770783 -0.000110669 0.010318)
(0.000516136 -0.000103928 0.0102667)
(0.000296146 -9.89889e-05 0.0102332)
(9.64654e-05 -9.64654e-05 0.0102168)
(-9.64654e-05 -9.64654e-05 0.0102168)
(-0.000296146 -9.89889e-05 0.0102332)
(-0.000516136 -0.000103928 0.0102667)
(-0.000770783 -0.000110669 0.010318)
(-0.00107571 -0.000118004 0.0103866)
(0.00108763 -0.000359344 0.0103987)
(0.000783841 -0.000337577 0.0103328)
(0.000527294 -0.000317873 0.0102826)
(0.000303481 -0.000303481 0.0102495)
(9.89889e-05 -0.000296146 0.0102332)
(-9.89889e-05 -0.000296146 0.0102332)
(-0.000303481 -0.000303481 0.0102495)
(-0.000527294 -0.000317873 0.0102826)
(-0.000783841 -0.000337577 0.0103328)
(-0.00108763 -0.000359344 0.0103987)
(0.00111321 -0.000612115 0.0104215)
(0.000810469 -0.0005795 0.0103622)
(0.000549361 -0.000549361 0.0103146)
(0.000317873 -0.000527294 0.0102826)
(0.000103928 -0.000516136 0.0102667)
(-0.000103928 -0.000516136 0.0102667)
(-0.000317873 -0.000527294 0.0102826)
(-0.000549361 -0.000549361 0.0103146)
(-0.000810469 -0.0005795 0.0103622)
(-0.00111321 -0.000612115 0.0104215)
(0.00113832 -0.000897606 0.0104495)
(0.000847354 -0.000847354 0.010404)
(0.0005795 -0.000810469 0.0103622)
(0.000337577 -0.000783841 0.0103328)
(0.000110669 -0.000770783 0.010318)
(-0.000110669 -0.000770783 0.010318)
(-0.000337577 -0.000783841 0.0103328)
(-0.0005795 -0.000810469 0.0103622)
(-0.000847354 -0.000847355 0.010404)
(-0.00113832 -0.000897606 0.0104495)
(0.00121357 -0.00121357 0.0104721)
(0.000897606 -0.00113832 0.0104495)
(0.000612115 -0.00111321 0.0104215)
(0.000359344 -0.00108763 0.0103987)
(0.000118004 -0.00107571 0.0103866)
(-0.000118004 -0.00107571 0.0103866)
(-0.000359344 -0.00108763 0.0103987)
(-0.000612115 -0.00111321 0.0104215)
(-0.000897606 -0.00113832 0.0104495)
(-0.00121357 -0.00121357 0.0104721)
(0.00068008 0.00068008 0.0125926)
(0.00053769 0.000716284 0.0125567)
(0.000382491 0.000740125 0.0124637)
(0.000229134 0.000751353 0.0123756)
(7.59244e-05 0.0007573 0.0123259)
(-7.59244e-05 0.0007573 0.0123259)
(-0.000229134 0.000751353 0.0123756)
(-0.000382491 0.000740125 0.0124637)
(-0.00053769 0.000716284 0.0125567)
(-0.00068008 0.00068008 0.0125926)
(0.000716284 0.00053769 0.0125567)
(0.00055851 0.00055851 0.0123972)
(0.000394672 0.000569021 0.0122193)
(0.000234777 0.000573191 0.0120851)
(7.77728e-05 0.000575297 0.0120154)
(-7.77728e-05 0.000575297 0.0120154)
(-0.000234777 0.000573191 0.0120851)
(-0.000394672 0.000569021 0.0122193)
(-0.00055851 0.00055851 0.0123972)
(-0.000716284 0.00053769 0.0125567)
(0.000740125 0.000382491 0.0124637)
(0.000569021 0.000394672 0.0122193)
(0.000400011 0.000400011 0.0119971)
(0.000237199 0.000401941 0.0118426)
(7.85532e-05 0.000402812 0.0117652)
(-7.85532e-05 0.000402812 0.0117652)
(-0.000237199 0.000401941 0.0118426)
(-0.000400011 0.000400011 0.0119971)
(-0.000569021 0.000394672 0.0122193)
(-0.000740125 0.000382491 0.0124637)
(0.000751353 0.000229134 0.0123756)
(0.000573191 0.000234777 0.0120851)
(0.000401941 0.000237199 0.0118426)
(0.000238087 0.000238087 0.0116805)
(7.88465e-05 0.000238471 0.0116007)
(-7.88465e-05 0.000238471 0.0116007)
(-0.000238087 0.000238087 0.0116805)
(-0.000401941 0.000237199 0.0118426)
(-0.000573191 0.000234777 0.0120851)
(-0.000751353 0.000229134 0.0123756)
(0.0007573 7.59244e-05 0.0123259)
(0.000575297 7.77728e-05 0.0120154)
(0.000402812 7.85532e-05 0.0117652)
(0.000238471 7.88465e-05 0.0116007)
(7.89708e-05 7.89708e-05 0.0115204)
(-7.89707e-05 7.89708e-05 0.0115204)
(-0.000238471 7.88465e-05 0.0116007)
(-0.000402812 7.85532e-05 0.0117652)
(-0.000575297 7.77728e-05 0.0120154)
(-0.0007573 7.59244e-05 0.0123259)
(0.0007573 -7.59244e-05 0.0123259)
(0.000575297 -7.77728e-05 0.0120154)
(0.000402812 -7.85532e-05 0.0117652)
(0.000238471 -7.88465e-05 0.0116007)
(7.89708e-05 -7.89707e-05 0.0115204)
(-7.89707e-05 -7.89707e-05 0.0115204)
(-0.000238471 -7.88465e-05 0.0116007)
(-0.000402812 -7.85532e-05 0.0117652)
(-0.000575297 -7.77728e-05 0.0120154)
(-0.0007573 -7.59244e-05 0.0123259)
(0.000751353 -0.000229134 0.0123756)
(0.000573191 -0.000234777 0.0120851)
(0.000401941 -0.000237199 0.0118426)
(0.000238087 -0.000238087 0.0116805)
(7.88465e-05 -0.000238471 0.0116007)
(-7.88465e-05 -0.000238471 0.0116007)
(-0.000238087 -0.000238087 0.0116805)
(-0.000401941 -0.000237199 0.0118426)
(-0.000573191 -0.000234777 0.0120851)
(-0.000751353 -0.000229134 0.0123756)
(0.000740125 -0.000382491 0.0124637)
(0.000569021 -0.000394672 0.0122193)
(0.000400011 -0.000400011 0.0119971)
(0.000237199 -0.000401941 0.0118426)
(7.85532e-05 -0.000402812 0.0117652)
(-7.85532e-05 -0.000402812 0.0117652)
(-0.000237199 -0.000401941 0.0118426)
(-0.000400011 -0.000400011 0.0119971)
(-0.000569021 -0.000394672 0.0122193)
(-0.000740125 -0.000382491 0.0124637)
(0.000716284 -0.00053769 0.0125567)
(0.00055851 -0.00055851 0.0123972)
(0.000394672 -0.000569021 0.0122193)
(0.000234777 -0.000573191 0.0120851)
(7.77728e-05 -0.000575297 0.0120154)
(-7.77728e-05 -0.000575297 0.0120154)
(-0.000234777 -0.000573191 0.0120851)
(-0.000394672 -0.000569021 0.0122193)
(-0.00055851 -0.00055851 0.0123972)
(-0.000716284 -0.00053769 0.0125567)
(0.00068008 -0.00068008 0.0125926)
(0.00053769 -0.000716284 0.0125567)
(0.000382491 -0.000740125 0.0124637)
(0.000229134 -0.000751353 0.0123756)
(7.59244e-05 -0.0007573 0.0123259)
(-7.59244e-05 -0.0007573 0.0123259)
(-0.000229134 -0.000751353 0.0123756)
(-0.000382491 -0.000740125 0.0124637)
(-0.00053769 -0.000716284 0.0125567)
(-0.00068008 -0.00068008 0.0125926)
(0.000428657 0.000428657 0.0124621)
(0.000359873 0.000480358 0.0126395)
(0.000271203 0.000517377 0.0126769)
(0.000168267 0.000540467 0.0126627)
(5.67763e-05 0.000552182 0.0126464)
(-5.67763e-05 0.000552183 0.0126464)
(-0.000168267 0.000540467 0.0126627)
(-0.000271203 0.000517377 0.0126769)
(-0.000359873 0.000480358 0.0126395)
(-0.000428657 0.000428657 0.0124621)
(0.000480358 0.000359873 0.0126395)
(0.000404118 0.000404118 0.0126685)
(0.000303105 0.000433902 0.0125989)
(0.000187444 0.000451783 0.012525)
(6.32857e-05 0.000460566 0.0124827)
(-6.32857e-05 0.000460566 0.0124827)
(-0.000187444 0.000451783 0.012525)
(-0.000303105 0.000433902 0.0125989)
(-0.000404118 0.000404118 0.0126685)
(-0.000480358 0.000359873 0.0126395)
(0.000517377 0.000271203 0.0126769)
(0.000433902 0.000303105 0.0125989)
(0.000324649 0.000324649 0.0124701)
(0.000200345 0.000337466 0.0123684)
(6.76335e-05 0.000343607 0.0123154)
(-6.76334e-05 0.000343607 0.0123154)
(-0.000200345 0.000337466 0.0123684)
(-0.000324649 0.000324649 0.0124701)
(-0.000433902 0.000303105 0.0125989)
(-0.000517377 0.000271203 0.0126769)
(0.000540467 0.000168267 0.0126627)
(0.000451783 0.000187444 0.012525)
(0.000337466 0.000200345 0.0123684)
(0.000207999 0.000207999 0.0122557)
(7.01987e-05 0.000211613 0.012199)
(-7.01987e-05 0.000211613 0.012199)
(-0.000207999 0.000207999 0.0122557)
(-0.000337466 0.000200345 0.0123684)
(-0.000451783 0.000187444 0.012525)
(-0.000540467 0.000168267 0.0126627)
(0.000552182 5.67763e-05 0.0126464)
(0.000460566 6.32857e-05 0.0124827)
(0.000343607 6.76335e-05 0.0123154)
(0.000211613 7.01988e-05 0.012199)
(7.13984e-05 7.13984e-05 0.0121412)
(-7.13984e-05 7.13984e-05 0.0121412)
(-0.000211613 7.01987e-05 0.012199)
(-0.000343607 6.76334e-05 0.0123154)
(-0.000460566 6.32857e-05 0.0124827)
(-0.000552182 5.67763e-05 0.0126464)
(0.000552182 -5.67763e-05 0.0126464)
(0.000460566 -6.32857e-05 0.0124827)
(0.000343607 -6.76334e-05 0.0123154)
(0.000211613 -7.01987e-05 0.012199)
(7.13984e-05 -7.13984e-05 0.0121412)
(-7.13984e-05 -7.13984e-05 0.0121412)
(-0.000211613 -7.01987e-05 0.012199)
(-0.000343607 -6.76334e-05 0.0123154)
(-0.000460566 -6.32857e-05 0.0124827)
(-0.000552182 -5.67763e-05 0.0126464)
(0.000540467 -0.000168267 0.0126627)
(0.000451783 -0.000187444 0.012525)
(0.000337466 -0.000200345 0.0123684)
(0.000207999 -0.000207999 0.0122557)
(7.01987e-05 -0.000211613 0.012199)
(-7.01987e-05 -0.000211613 0.012199)
(-0.000207999 -0.000207999 0.0122557)
(-0.000337466 -0.000200345 0.0123684)
(-0.000451783 -0.000187444 0.012525)
(-0.000540467 -0.000168267 0.0126627)
(0.000517377 -0.000271203 0.0126769)
(0.000433902 -0.000303105 0.0125989)
(0.000324649 -0.000324649 0.0124701)
(0.000200345 -0.000337466 0.0123684)
(6.76334e-05 -0.000343607 0.0123154)
(-6.76334e-05 -0.000343607 0.0123154)
(-0.000200345 -0.000337466 0.0123684)
(-0.000324649 -0.000324649 0.0124701)
(-0.000433902 -0.000303105 0.0125989)
(-0.000517377 -0.000271202 0.0126769)
(0.000480358 -0.000359873 0.0126395)
(0.000404118 -0.000404118 0.0126685)
(0.000303105 -0.000433902 0.0125989)
(0.000187444 -0.000451783 0.012525)
(6.32857e-05 -0.000460566 0.0124827)
(-6.32857e-05 -0.000460566 0.0124827)
(-0.000187444 -0.000451783 0.012525)
(-0.000303105 -0.000433902 0.0125989)
(-0.000404118 -0.000404118 0.0126685)
(-0.000480358 -0.000359873 0.0126395)
(0.000428657 -0.000428657 0.0124621)
(0.000359873 -0.000480358 0.0126395)
(0.000271203 -0.000517377 0.0126769)
(0.000168267 -0.000540467 0.0126627)
(5.67763e-05 -0.000552182 0.0126464)
(-5.67763e-05 -0.000552182 0.0126464)
(-0.000168267 -0.000540467 0.0126627)
(-0.000271202 -0.000517377 0.0126769)
(-0.000359873 -0.000480358 0.0126395)
(-0.000428658 -0.000428658 0.0124621)
(0.000158276 0.000158276 0.0126142)
(0.000142251 0.000196587 0.0128718)
(0.000114358 0.000224644 0.0129696)
(7.35066e-05 0.000244248 0.0129947)
(2.52529e-05 0.00025425 0.0129974)
(-2.52529e-05 0.00025425 0.0129974)
(-7.35066e-05 0.000244248 0.0129947)
(-0.000114358 0.000224644 0.0129696)
(-0.000142251 0.000196587 0.0128718)
(-0.000158276 0.000158276 0.0126142)
(0.000196587 0.000142251 0.0128718)
(0.000178423 0.000178423 0.012995)
(0.00014201 0.000205377 0.0129915)
(9.11133e-05 0.000223168 0.0129592)
(3.13121e-05 0.000232114 0.0129368)
(-3.13121e-05 0.000232114 0.0129368)
(-9.11133e-05 0.000223168 0.0129592)
(-0.00014201 0.000205377 0.0129915)
(-0.000178423 0.000178423 0.012995)
(-0.000196587 0.000142251 0.0128718)
(0.000224644 0.000114358 0.0129696)
(0.000205377 0.00014201 0.0129915)
(0.000163234 0.000163234 0.0129303)
(0.000104523 0.000177096 0.01287)
(3.59097e-05 0.000183983 0.0128365)
(-3.59096e-05 0.000183983 0.0128365)
(-0.000104523 0.000177096 0.01287)
(-0.000163234 0.000163234 0.0129303)
(-0.000205377 0.00014201 0.0129915)
(-0.000224644 0.000114358 0.0129696)
(0.000244248 7.35066e-05 0.0129947)
(0.000223168 9.11133e-05 0.0129592)
(0.000177096 0.000104523 0.01287)
(0.000113242 0.000113242 0.0127977)
(3.88874e-05 0.000117537 0.0127598)
(-3.88874e-05 0.000117537 0.0127598)
(-0.000113242 0.000113242 0.0127977)
(-0.000177096 0.000104523 0.01287)
(-0.000223168 9.11133e-05 0.0129592)
(-0.000244248 7.35066e-05 0.0129947)
(0.00025425 2.52529e-05 0.0129974)
(0.000232114 3.13121e-05 0.0129368)
(0.000183983 3.59097e-05 0.0128365)
(0.000117537 3.88874e-05 0.0127598)
(4.03473e-05 4.03473e-05 0.0127203)
(-4.03473e-05 4.03473e-05 0.0127203)
(-0.000117537 3.88875e-05 0.0127598)
(-0.000183983 3.59096e-05 0.0128365)
(-0.000232114 3.13121e-05 0.0129368)
(-0.00025425 2.52529e-05 0.0129974)
(0.00025425 -2.52529e-05 0.0129974)
(0.000232114 -3.13121e-05 0.0129368)
(0.000183983 -3.59096e-05 0.0128365)
(0.000117537 -3.88874e-05 0.0127598)
(4.03473e-05 -4.03473e-05 0.0127203)
(-4.03473e-05 -4.03473e-05 0.0127203)
(-0.000117537 -3.88874e-05 0.0127598)
(-0.000183983 -3.59096e-05 0.0128365)
(-0.000232114 -3.13121e-05 0.0129368)
(-0.00025425 -2.52529e-05 0.0129974)
(0.000244248 -7.35066e-05 0.0129947)
(0.000223168 -9.11133e-05 0.0129592)
(0.000177096 -0.000104523 0.01287)
(0.000113242 -0.000113242 0.0127977)
(3.88875e-05 -0.000117537 0.0127598)
(-3.88874e-05 -0.000117537 0.0127598)
(-0.000113242 -0.000113242 0.0127977)
(-0.000177096 -0.000104523 0.01287)
(-0.000223168 -9.11133e-05 0.0129592)
(-0.000244248 -7.35065e-05 0.0129947)
(0.000224644 -0.000114358 0.0129696)
(0.000205377 -0.00014201 0.0129915)
(0.000163234 -0.000163234 0.0129303)
(0.000104523 -0.000177096 0.01287)
(3.59097e-05 -0.000183983 0.0128365)
(-3.59096e-05 -0.000183983 0.0128365)
(-0.000104523 -0.000177096 0.01287)
(-0.000163234 -0.000163234 0.0129303)
(-0.000205377 -0.00014201 0.0129915)
(-0.000224644 -0.000114358 0.0129696)
(0.000196587 -0.000142251 0.0128718)
(0.000178423 -0.000178423 0.012995)
(0.00014201 -0.000205377 0.0129915)
(9.11133e-05 -0.000223168 0.0129592)
(3.13121e-05 -0.000232114 0.0129368)
(-3.13121e-05 -0.000232114 0.0129368)
(-9.11133e-05 -0.000223168 0.0129592)
(-0.00014201 -0.000205377 0.0129915)
(-0.000178423 -0.000178423 0.012995)
(-0.000196587 -0.000142251 0.0128718)
(0.000158276 -0.000158276 0.0126142)
(0.000142251 -0.000196587 0.0128718)
(0.000114358 -0.000224644 0.0129696)
(7.35066e-05 -0.000244248 0.0129947)
(2.52529e-05 -0.00025425 0.0129974)
(-2.52529e-05 -0.00025425 0.0129974)
(-7.35065e-05 -0.000244248 0.0129947)
(-0.000114358 -0.000224644 0.0129696)
(-0.000142251 -0.000196587 0.0128718)
(-0.000158276 -0.000158276 0.0126142)
(6.00998e-05 6.00998e-05 0.0125537)
(5.57772e-05 7.71524e-05 0.0128564)
(4.66701e-05 9.04692e-05 0.0129934)
(3.06151e-05 0.000100234 0.0130467)
(1.06285e-05 0.000105264 0.013064)
(-1.06285e-05 0.000105264 0.013064)
(-3.06151e-05 0.000100234 0.0130467)
(-4.66701e-05 9.04692e-05 0.0129934)
(-5.57772e-05 7.71524e-05 0.0128564)
(-6.00998e-05 6.00998e-05 0.0125537)
(7.71524e-05 5.57773e-05 0.0128564)
(7.37175e-05 7.37175e-05 0.0130421)
(6.09492e-05 8.77061e-05 0.0130895)
(3.99567e-05 9.73097e-05 0.0130925)
(1.38714e-05 0.000102211 0.013088)
(-1.38713e-05 0.000102211 0.013088)
(-3.99567e-05 9.73097e-05 0.0130925)
(-6.09492e-05 8.77062e-05 0.0130895)
(-7.37175e-05 7.37175e-05 0.0130421)
(-7.71524e-05 5.57773e-05 0.0128564)
(9.04692e-05 4.66701e-05 0.0129934)
(8.77061e-05 6.09492e-05 0.0130895)
(7.24306e-05 7.24306e-05 0.0130866)
(4.74225e-05 8.02234e-05 0.0130654)
(1.64611e-05 8.41699e-05 0.0130513)
(-1.64611e-05 8.41699e-05 0.0130513)
(-4.74225e-05 8.02234e-05 0.0130654)
(-7.24306e-05 7.24306e-05 0.0130866)
(-8.77062e-05 6.09492e-05 0.0130895)
(-9.04692e-05 4.66701e-05 0.0129934)
(0.000100234 3.06151e-05 0.0130467)
(9.73097e-05 3.99567e-05 0.0130925)
(8.02234e-05 4.74225e-05 0.0130654)
(5.24586e-05 5.24586e-05 0.0130338)
(1.82035e-05 5.49946e-05 0.013016)
(-1.82035e-05 5.49946e-05 0.013016)
(-5.24586e-05 5.24586e-05 0.0130338)
(-8.02234e-05 4.74225e-05 0.0130654)
(-9.73097e-05 3.99567e-05 0.0130925)
(-0.000100234 3.06151e-05 0.0130467)
(0.000105264 1.06285e-05 0.013064)
(0.000102211 1.38714e-05 0.013088)
(8.41699e-05 1.64611e-05 0.0130513)
(5.49946e-05 1.82035e-05 0.013016)
(1.90784e-05 1.90784e-05 0.0129968)
(-1.90784e-05 1.90784e-05 0.0129968)
(-5.49945e-05 1.82035e-05 0.013016)
(-8.41699e-05 1.64611e-05 0.0130513)
(-0.000102211 1.38713e-05 0.013088)
(-0.000105264 1.06284e-05 0.013064)
(0.000105264 -1.06284e-05 0.013064)
(0.000102211 -1.38713e-05 0.013088)
(8.41699e-05 -1.64611e-05 0.0130513)
(5.49946e-05 -1.82035e-05 0.013016)
(1.90784e-05 -1.90784e-05 0.0129968)
(-1.90784e-05 -1.90784e-05 0.0129968)
(-5.49945e-05 -1.82035e-05 0.013016)
(-8.41699e-05 -1.64611e-05 0.0130513)
(-0.000102211 -1.38714e-05 0.013088)
(-0.000105264 -1.06285e-05 0.013064)
(0.000100234 -3.06151e-05 0.0130467)
(9.73097e-05 -3.99567e-05 0.0130925)
(8.02234e-05 -4.74225e-05 0.0130654)
(5.24586e-05 -5.24586e-05 0.0130338)
(1.82035e-05 -5.49945e-05 0.013016)
(-1.82035e-05 -5.49945e-05 0.013016)
(-5.24586e-05 -5.24586e-05 0.0130338)
(-8.02234e-05 -4.74225e-05 0.0130654)
(-9.73097e-05 -3.99567e-05 0.0130925)
(-0.000100234 -3.06151e-05 0.0130467)
(9.04692e-05 -4.66701e-05 0.0129934)
(8.77062e-05 -6.09492e-05 0.0130895)
(7.24306e-05 -7.24306e-05 0.0130866)
(4.74225e-05 -8.02234e-05 0.0130654)
(1.64611e-05 -8.41699e-05 0.0130513)
(-1.64611e-05 -8.41699e-05 0.0130513)
(-4.74225e-05 -8.02234e-05 0.0130654)
(-7.24306e-05 -7.24306e-05 0.0130866)
(-8.77061e-05 -6.09491e-05 0.0130895)
(-9.04692e-05 -4.667e-05 0.0129934)
(7.71524e-05 -5.57773e-05 0.0128564)
(7.37175e-05 -7.37175e-05 0.0130421)
(6.09492e-05 -8.77062e-05 0.0130895)
(3.99567e-05 -9.73097e-05 0.0130925)
(1.38713e-05 -0.000102211 0.013088)
(-1.38714e-05 -0.000102211 0.013088)
(-3.99567e-05 -9.73097e-05 0.0130925)
(-6.09491e-05 -8.77061e-05 0.0130895)
(-7.37175e-05 -7.37175e-05 0.0130421)
(-7.71525e-05 -5.57772e-05 0.0128564)
(6.00998e-05 -6.00998e-05 0.0125537)
(5.57772e-05 -7.71524e-05 0.0128564)
(4.66701e-05 -9.04692e-05 0.0129934)
(3.06151e-05 -0.000100234 0.0130467)
(1.06284e-05 -0.000105264 0.013064)
(-1.06285e-05 -0.000105264 0.013064)
(-3.06151e-05 -0.000100234 0.0130467)
(-4.667e-05 -9.04692e-05 0.0129934)
(-5.57772e-05 -7.71525e-05 0.0128564)
(-6.00998e-05 -6.00998e-05 0.0125537)
(1.91309e-05 1.91309e-05 0.0125147)
(1.89621e-05 2.65416e-05 0.0128288)
(1.68634e-05 3.25234e-05 0.0129786)
(1.14e-05 3.70725e-05 0.0130423)
(4.01906e-06 3.94301e-05 0.0130653)
(-4.01905e-06 3.94301e-05 0.0130653)
(-1.14e-05 3.70725e-05 0.0130423)
(-1.68634e-05 3.25234e-05 0.0129786)
(-1.89621e-05 2.65416e-05 0.0128288)
(-1.91309e-05 1.91309e-05 0.0125147)
(2.65416e-05 1.89621e-05 0.0128288)
(2.72382e-05 2.72382e-05 0.0130368)
(2.36658e-05 3.39342e-05 0.0131051)
(1.59491e-05 3.86821e-05 0.0131238)
(5.60892e-06 4.11328e-05 0.0131275)
(-5.60892e-06 4.11328e-05 0.0131275)
(-1.59491e-05 3.86821e-05 0.0131238)
(-2.36658e-05 3.39342e-05 0.0131051)
(-2.72382e-05 2.72382e-05 0.0130368)
(-2.65416e-05 1.89621e-05 0.0128288)
(3.25234e-05 1.68634e-05 0.0129786)
(3.39342e-05 2.36658e-05 0.0131051)
(2.93432e-05 2.93432e-05 0.0131291)
(1.9719e-05 3.33101e-05 0.0131272)
(6.92705e-06 3.53454e-05 0.013123)
(-6.92705e-06 3.53454e-05 0.013123)
(-1.9719e-05 3.33101e-05 0.0131272)
(-2.93432e-05 2.93432e-05 0.0131291)
(-3.39342e-05 2.36658e-05 0.0131051)
(-3.25234e-05 1.68634e-05 0.0129786)
(3.70725e-05 1.14e-05 0.0130423)
(3.86821e-05 1.59491e-05 0.0131238)
(3.33101e-05 1.9719e-05 0.0131272)
(2.23298e-05 2.23298e-05 0.013117)
(7.83721e-06 2.36615e-05 0.01311)
(-7.8372e-06 2.36615e-05 0.01311)
(-2.23298e-05 2.23298e-05 0.013117)
(-3.33101e-05 1.9719e-05 0.0131272)
(-3.86821e-05 1.59491e-05 0.0131238)
(-3.70725e-05 1.14e-05 0.0130423)
(3.94301e-05 4.01906e-06 0.0130653)
(4.11328e-05 5.60892e-06 0.0131275)
(3.53454e-05 6.92704e-06 0.013123)
(2.36615e-05 7.83721e-06 0.01311)
(8.30012e-06 8.30012e-06 0.013102)
(-8.30012e-06 8.30012e-06 0.013102)
(-2.36615e-05 7.83721e-06 0.01311)
(-3.53454e-05 6.92705e-06 0.013123)
(-4.11328e-05 5.60891e-06 0.0131275)
(-3.94301e-05 4.01905e-06 0.0130653)
(3.94301e-05 -4.01905e-06 0.0130653)
(4.11328e-05 -5.60891e-06 0.0131275)
(3.53454e-05 -6.92705e-06 0.013123)
(2.36615e-05 -7.8372e-06 0.01311)
(8.30013e-06 -8.30012e-06 0.013102)
(-8.30011e-06 -8.30011e-06 0.013102)
(-2.36615e-05 -7.8372e-06 0.01311)
(-3.53454e-05 -6.92705e-06 0.013123)
(-4.11328e-05 -5.60892e-06 0.0131275)
(-3.94301e-05 -4.01905e-06 0.0130653)
(3.70725e-05 -1.14e-05 0.0130423)
(3.86821e-05 -1.59491e-05 0.0131238)
(3.33101e-05 -1.9719e-05 0.0131272)
(2.23298e-05 -2.23298e-05 0.013117)
(7.83721e-06 -2.36615e-05 0.01311)
(-7.8372e-06 -2.36615e-05 0.01311)
(-2.23298e-05 -2.23298e-05 0.013117)
(-3.33101e-05 -1.9719e-05 0.0131272)
(-3.86821e-05 -1.5949e-05 0.0131238)
(-3.70725e-05 -1.14e-05 0.0130423)
(3.25234e-05 -1.68634e-05 0.0129786)
(3.39342e-05 -2.36658e-05 0.0131051)
(2.93432e-05 -2.93432e-05 0.0131291)
(1.9719e-05 -3.33101e-05 0.0131272)
(6.92705e-06 -3.53454e-05 0.013123)
(-6.92705e-06 -3.53454e-05 0.013123)
(-1.9719e-05 -3.33101e-05 0.0131272)
(-2.93432e-05 -2.93432e-05 0.0131291)
(-3.39342e-05 -2.36658e-05 0.0131051)
(-3.25234e-05 -1.68634e-05 0.0129786)
(2.65416e-05 -1.89621e-05 0.0128288)
(2.72382e-05 -2.72382e-05 0.0130368)
(2.36658e-05 -3.39342e-05 0.0131051)
(1.59491e-05 -3.86821e-05 0.0131238)
(5.60891e-06 -4.11328e-05 0.0131275)
(-5.60892e-06 -4.11328e-05 0.0131275)
(-1.5949e-05 -3.86821e-05 0.0131238)
(-2.36658e-05 -3.39342e-05 0.0131051)
(-2.72382e-05 -2.72382e-05 0.0130368)
(-2.65416e-05 -1.89621e-05 0.0128288)
(1.91309e-05 -1.91309e-05 0.0125147)
(1.89621e-05 -2.65416e-05 0.0128288)
(1.68634e-05 -3.25234e-05 0.0129786)
(1.14e-05 -3.70725e-05 0.0130423)
(4.01904e-06 -3.94301e-05 0.0130653)
(-4.01905e-06 -3.94301e-05 0.0130653)
(-1.14e-05 -3.70725e-05 0.0130423)
(-1.68634e-05 -3.25234e-05 0.0129786)
(-1.89621e-05 -2.65416e-05 0.0128288)
(-1.91309e-05 -1.91309e-05 0.0125147)
(4.91644e-06 4.91643e-06 0.0125007)
(5.31272e-06 7.6542e-06 0.0128177)
(5.09709e-06 9.94272e-06 0.0129716)
(3.56087e-06 1.17761e-05 0.013039)
(1.27931e-06 1.27301e-05 0.0130641)
(-1.2793e-06 1.27301e-05 0.0130641)
(-3.56087e-06 1.17761e-05 0.013039)
(-5.09709e-06 9.94273e-06 0.0129716)
(-5.31273e-06 7.65421e-06 0.0128177)
(-4.91644e-06 4.91644e-06 0.0125007)
(7.65421e-06 5.31273e-06 0.0128177)
(8.55941e-06 8.55941e-06 0.0130331)
(7.87643e-06 1.13181e-05 0.0131093)
(5.471e-06 1.33594e-05 0.0131342)
(1.95234e-06 1.44297e-05 0.0131413)
(-1.95233e-06 1.44297e-05 0.0131413)
(-5.47099e-06 1.33594e-05 0.0131342)
(-7.87644e-06 1.13181e-05 0.0131093)
(-8.55942e-06 8.55942e-06 0.0130331)
(-7.65421e-06 5.31273e-06 0.0128177)
(9.94271e-06 5.09709e-06 0.0129716)
(1.13181e-05 7.87643e-06 0.0131093)
(1.03167e-05 1.03167e-05 0.013144)
(7.13604e-06 1.20899e-05 0.0131502)
(2.54056e-06 1.30163e-05 0.0131503)
(-2.54055e-06 1.30163e-05 0.0131503)
(-7.13603e-06 1.20899e-05 0.0131502)
(-1.03167e-05 1.03167e-05 0.013144)
(-1.13181e-05 7.87644e-06 0.0131093)
(-9.94272e-06 5.0971e-06 0.0129716)
(1.17761e-05 3.56087e-06 0.013039)
(1.33594e-05 5.471e-06 0.0131342)
(1.20899e-05 7.13604e-06 0.0131502)
(8.33322e-06 8.33322e-06 0.0131492)
(2.96242e-06 8.95568e-06 0.013147)
(-2.96241e-06 8.95567e-06 0.013147)
(-8.33321e-06 8.33322e-06 0.0131492)
(-1.20899e-05 7.13604e-06 0.0131502)
(-1.33594e-05 5.47099e-06 0.0131342)
(-1.17761e-05 3.56087e-06 0.013039)
(1.27301e-05 1.27931e-06 0.0130641)
(1.44297e-05 1.95234e-06 0.0131413)
(1.30163e-05 2.54056e-06 0.0131503)
(8.95567e-06 2.96243e-06 0.013147)
(3.18133e-06 3.18133e-06 0.013144)
(-3.18132e-06 3.18133e-06 0.013144)
(-8.95566e-06 2.96242e-06 0.013147)
(-1.30163e-05 2.54056e-06 0.0131503)
(-1.44297e-05 1.95234e-06 0.0131413)
(-1.27301e-05 1.2793e-06 0.0130641)
(1.27301e-05 -1.2793e-06 0.0130641)
(1.44297e-05 -1.95233e-06 0.0131413)
(1.30163e-05 -2.54055e-06 0.0131503)
(8.95567e-06 -2.96241e-06 0.013147)
(3.18133e-06 -3.18132e-06 0.013144)
(-3.18132e-06 -3.18132e-06 0.013144)
(-8.95566e-06 -2.96241e-06 0.013147)
(-1.30163e-05 -2.54055e-06 0.0131503)
(-1.44297e-05 -1.95233e-06 0.0131413)
(-1.273e-05 -1.2793e-06 0.0130641)
(1.17761e-05 -3.56087e-06 0.013039)
(1.33594e-05 -5.47099e-06 0.0131342)
(1.20899e-05 -7.13603e-06 0.0131502)
(8.33322e-06 -8.33321e-06 0.0131492)
(2.96242e-06 -8.95566e-06 0.013147)
(-2.96241e-06 -8.95566e-06 0.013147)
(-8.33321e-06 -8.33321e-06 0.0131492)
(-1.20899e-05 -7.13603e-06 0.0131502)
(-1.33594e-05 -5.47098e-06 0.0131342)
(-1.17761e-05 -3.56086e-06 0.013039)
(9.94272e-06 -5.09709e-06 0.0129716)
(1.13181e-05 -7.87644e-06 0.0131093)
(1.03167e-05 -1.03167e-05 0.013144)
(7.13603e-06 -1.20899e-05 0.0131502)
(2.54056e-06 -1.30163e-05 0.0131503)
(-2.54055e-06 -1.30163e-05 0.0131503)
(-7.13603e-06 -1.20899e-05 0.0131502)
(-1.03167e-05 -1.03167e-05 0.013144)
(-1.13181e-05 -7.87643e-06 0.0131093)
(-9.94271e-06 -5.09708e-06 0.0129716)
(7.65421e-06 -5.31273e-06 0.0128177)
(8.55943e-06 -8.55942e-06 0.0130331)
(7.87644e-06 -1.13181e-05 0.0131093)
(5.47098e-06 -1.33594e-05 0.0131342)
(1.95234e-06 -1.44297e-05 0.0131413)
(-1.95233e-06 -1.44297e-05 0.0131413)
(-5.47098e-06 -1.33594e-05 0.0131342)
(-7.87643e-06 -1.13181e-05 0.0131093)
(-8.55941e-06 -8.55941e-06 0.0130331)
(-7.65421e-06 -5.31271e-06 0.0128177)
(4.91644e-06 -4.91644e-06 0.0125007)
(5.31273e-06 -7.65421e-06 0.0128177)
(5.09709e-06 -9.94273e-06 0.0129716)
(3.56087e-06 -1.17761e-05 0.013039)
(1.27931e-06 -1.27301e-05 0.0130641)
(-1.2793e-06 -1.27301e-05 0.0130641)
(-3.56087e-06 -1.17761e-05 0.013039)
(-5.09708e-06 -9.94272e-06 0.0129716)
(-5.31272e-06 -7.6542e-06 0.0128177)
(-4.91644e-06 -4.91644e-06 0.0125007)
(1.11504e-06 1.11504e-06 0.0124953)
(1.34079e-06 1.99266e-06 0.0128129)
(1.40526e-06 2.74427e-06 0.012968)
(1.01369e-06 3.38041e-06 0.0130367)
(3.72327e-07 3.71111e-06 0.0130625)
(-3.72323e-07 3.71111e-06 0.0130625)
(-1.01369e-06 3.38041e-06 0.0130367)
(-1.40526e-06 2.74427e-06 0.012968)
(-1.34079e-06 1.99266e-06 0.0128129)
(-1.11504e-06 1.11504e-06 0.0124953)
(1.99266e-06 1.34079e-06 0.0128129)
(2.44563e-06 2.44563e-06 0.0130306)
(2.38316e-06 3.4215e-06 0.0131096)
(1.70155e-06 4.1725e-06 0.0131369)
(6.16047e-07 4.57131e-06 0.0131453)
(-6.16044e-07 4.5713e-06 0.0131453)
(-1.70155e-06 4.17249e-06 0.0131369)
(-2.38316e-06 3.42149e-06 0.0131096)
(-2.44563e-06 2.44563e-06 0.0130306)
(-1.99266e-06 1.34079e-06 0.0128129)
(2.74427e-06 1.40526e-06 0.012968)
(3.42149e-06 2.38316e-06 0.0131096)
(3.28108e-06 3.28108e-06 0.0131485)
(2.33045e-06 3.9588e-06 0.0131578)
(8.4025e-07 4.31866e-06 0.0131597)
(-8.4025e-07 4.31866e-06 0.0131597)
(-2.33044e-06 3.9588e-06 0.0131578)
(-3.28108e-06 3.28108e-06 0.0131485)
(-3.42149e-06 2.38316e-06 0.0131096)
(-2.74426e-06 1.40526e-06 0.012968)
(3.38041e-06 1.01369e-06 0.0130367)
(4.1725e-06 1.70155e-06 0.0131369)
(3.9588e-06 2.33045e-06 0.0131578)
(2.79993e-06 2.79993e-06 0.0131606)
(1.00741e-06 3.0485e-06 0.0131604)
(-1.00741e-06 3.0485e-06 0.0131604)
(-2.79992e-06 2.79993e-06 0.0131606)
(-3.95879e-06 2.33045e-06 0.0131578)
(-4.17249e-06 1.70155e-06 0.0131369)
(-3.3804e-06 1.01369e-06 0.0130367)
(3.71111e-06 3.72328e-07 0.0130625)
(4.57131e-06 6.16048e-07 0.0131453)
(4.31866e-06 8.4025e-07 0.0131597)
(3.0485e-06 1.00741e-06 0.0131604)
(1.09588e-06 1.09588e-06 0.0131596)
(-1.09588e-06 1.09588e-06 0.0131596)
(-3.04849e-06 1.00742e-06 0.0131604)
(-4.31866e-06 8.40252e-07 0.0131597)
(-4.5713e-06 6.16048e-07 0.0131453)
(-3.71111e-06 3.72328e-07 0.0130625)
(3.71111e-06 -3.72323e-07 0.0130625)
(4.5713e-06 -6.16043e-07 0.0131453)
(4.31866e-06 -8.40247e-07 0.0131597)
(3.0485e-06 -1.00741e-06 0.0131604)
(1.09588e-06 -1.09588e-06 0.0131596)
(-1.09588e-06 -1.09588e-06 0.0131596)
(-3.04849e-06 -1.00741e-06 0.0131604)
(-4.31866e-06 -8.40245e-07 0.0131597)
(-4.5713e-06 -6.16042e-07 0.0131453)
(-3.71111e-06 -3.72327e-07 0.0130625)
(3.38041e-06 -1.01369e-06 0.0130367)
(4.17249e-06 -1.70155e-06 0.0131369)
(3.9588e-06 -2.33044e-06 0.0131578)
(2.79992e-06 -2.79992e-06 0.0131606)
(1.00742e-06 -3.04849e-06 0.0131604)
(-1.00741e-06 -3.04849e-06 0.0131604)
(-2.79992e-06 -2.79992e-06 0.0131606)
(-3.95879e-06 -2.33044e-06 0.0131578)
(-4.17249e-06 -1.70154e-06 0.0131369)
(-3.3804e-06 -1.01369e-06 0.0130367)
(2.74427e-06 -1.40526e-06 0.012968)
(3.42149e-06 -2.38316e-06 0.0131096)
(3.28108e-06 -3.28108e-06 0.0131485)
(2.33045e-06 -3.95879e-06 0.0131578)
(8.40251e-07 -4.31866e-06 0.0131597)
(-8.40247e-07 -4.31866e-06 0.0131597)
(-2.33044e-06 -3.95879e-06 0.0131578)
(-3.28107e-06 -3.28108e-06 0.0131485)
(-3.42149e-06 -2.38316e-06 0.0131096)
(-2.74427e-06 -1.40526e-06 0.012968)
(1.99265e-06 -1.34079e-06 0.0128129)
(2.44563e-06 -2.44564e-06 0.0130306)
(2.38316e-06 -3.42149e-06 0.0131096)
(1.70155e-06 -4.17249e-06 0.0131369)
(6.16045e-07 -4.5713e-06 0.0131453)
(-6.16045e-07 -4.5713e-06 0.0131453)
(-1.70154e-06 -4.17249e-06 0.0131369)
(-2.38315e-06 -3.42149e-06 0.0131096)
(-2.44563e-06 -2.44563e-06 0.0130306)
(-1.99266e-06 -1.34079e-06 0.0128129)
(1.11504e-06 -1.11504e-06 0.0124953)
(1.34079e-06 -1.99265e-06 0.0128129)
(1.40526e-06 -2.74426e-06 0.012968)
(1.01369e-06 -3.3804e-06 0.0130367)
(3.72324e-07 -3.71111e-06 0.0130625)