/*--------------------------------*- C++ -*----------------------------------*\
| =========                 |                                                 |
| \\      /  F ield         | OpenFOAM: The Open Source CFD Toolbox           |
|  \\    /   O peration     | Version:  2412                                  |
|   \\  /    A nd           | Website:  www.openfoam.com                      |
|    \\/     M anipulation  |                                                 |
\*---------------------------------------------------------------------------*/
FoamFile
{
    version     2.0;
    format      ascii;
    arch        "LSB;label=32;scalar=64";
    class       surfaceScalarField;
    location    "9.7";
    object      phi;
}
// * * * * * * * * * * * * * * * * * * * * * * * * * * * * * * * * * * * * * //

dimensions      [0 3 -1 0 0 0 0];

oriented        oriented;

internalField   nonuniform List<scalar> 
43700
(
1.82694e-07
1.82694e-07
5.49985e-07
-2.22677e-07
-2.22677e-07
1.34916e-07
1.616e-07
5.93525e-07
-1.97963e-07
8.92766e-08
1.48079e-07
6.24371e-07
-1.8738e-07
4.42834e-08
1.39135e-07
6.44171e-07
-1.78601e-07
-3.78069e-17
1.34858e-07
6.53912e-07
-1.74558e-07
-4.42834e-08
1.34858e-07
6.53912e-07
-1.74558e-07
-8.92766e-08
1.39135e-07
6.44171e-07
-1.78601e-07
-1.34916e-07
1.48079e-07
6.24371e-07
-1.8738e-07
-1.82694e-07
1.616e-07
5.93525e-07
-1.97963e-07
1.82694e-07
5.49985e-07
-2.22677e-07
-2.22677e-07
1.616e-07
1.34916e-07
5.93525e-07
-1.97963e-07
1.20041e-07
1.20041e-07
6.2896e-07
7.90842e-08
1.08911e-07
6.53816e-07
3.91756e-08
1.01567e-07
6.69973e-07
-3.73894e-17
9.80024e-08
6.78004e-07
-3.91756e-08
9.80024e-08
6.78004e-07
-7.90842e-08
1.01567e-07
6.69973e-07
-1.20041e-07
1.08911e-07
6.53816e-07
-1.616e-07
1.20041e-07
6.2896e-07
1.34916e-07
5.93525e-07
-1.97963e-07
1.48079e-07
8.92766e-08
6.24371e-07
-1.8738e-07
1.08911e-07
7.90842e-08
6.53816e-07
7.13996e-08
7.13996e-08
6.74896e-07
3.53067e-08
6.63273e-08
6.88895e-07
-1.00659e-16
6.38504e-08
6.95937e-07
-3.53067e-08
6.38504e-08
6.95937e-07
-7.13996e-08
6.63273e-08
6.88895e-07
-1.08911e-07
7.13996e-08
6.74896e-07
-1.48079e-07
7.90842e-08
6.53816e-07
8.92766e-08
6.24371e-07
-1.8738e-07
1.39135e-07
4.42834e-08
6.44171e-07
-1.78601e-07
1.01567e-07
3.91756e-08
6.69973e-07
6.63273e-08
3.53067e-08
6.88895e-07
3.27407e-08
3.27407e-08
7.01676e-07
-1.81473e-16
3.14819e-08
7.08151e-07
-3.27407e-08
3.14819e-08
7.08151e-07
-6.63273e-08
3.27407e-08
7.01676e-07
-1.01567e-07
3.53067e-08
6.88895e-07
-1.39135e-07
3.91756e-08
6.69973e-07
4.42834e-08
6.44171e-07
-1.78601e-07
1.34858e-07
-1.63383e-16
6.53912e-07
-1.74558e-07
9.80024e-08
-1.96975e-16
6.78004e-07
6.38504e-08
-1.32707e-16
6.95937e-07
3.14819e-08
-2.0722e-16
7.08151e-07
-1.67401e-16
-2.78709e-16
7.14356e-07
-3.14819e-08
-1.58039e-16
7.14356e-07
-6.38504e-08
-1.35437e-16
7.08151e-07
-9.80024e-08
-1.97037e-16
6.95937e-07
-1.34858e-07
-1.78609e-16
6.78004e-07
-4.8246e-17
6.53912e-07
-1.74558e-07
1.34858e-07
-4.42834e-08
6.53912e-07
-1.74558e-07
9.80024e-08
-3.91756e-08
6.78004e-07
6.38504e-08
-3.53067e-08
6.95937e-07
3.14819e-08
-3.27407e-08
7.08151e-07
-6.59828e-17
-3.14819e-08
7.14356e-07
-3.14819e-08
-3.14819e-08
7.14356e-07
-6.38504e-08
-3.27407e-08
7.08151e-07
-9.80024e-08
-3.53067e-08
6.95937e-07
-1.34858e-07
-3.91756e-08
6.78004e-07
-4.42834e-08
6.53912e-07
-1.74558e-07
1.39135e-07
-8.92766e-08
6.44171e-07
-1.78601e-07
1.01567e-07
-7.90842e-08
6.69973e-07
6.63273e-08
-7.13996e-08
6.88895e-07
3.27407e-08
-6.63273e-08
7.01676e-07
-1.67207e-16
-6.38504e-08
7.08151e-07
-3.27407e-08
-6.38504e-08
7.08151e-07
-6.63273e-08
-6.63273e-08
7.01676e-07
-1.01567e-07
-7.13996e-08
6.88895e-07
-1.39135e-07
-7.90842e-08
6.69973e-07
-8.92766e-08
6.44171e-07
-1.78601e-07
1.48079e-07
-1.34916e-07
6.24371e-07
-1.8738e-07
1.08911e-07
-1.20041e-07
6.53816e-07
7.13996e-08
-1.08911e-07
6.74896e-07
3.53067e-08
-1.01567e-07
6.88895e-07
-3.35701e-16
-9.80024e-08
6.95937e-07
-3.53067e-08
-9.80024e-08
6.95937e-07
-7.13996e-08
-1.01567e-07
6.88895e-07
-1.08911e-07
-1.08911e-07
6.74896e-07
-1.48079e-07
-1.20041e-07
6.53816e-07
-1.34916e-07
6.24371e-07
-1.8738e-07
1.616e-07
-1.82694e-07
5.93525e-07
-1.97963e-07
1.20041e-07
-1.616e-07
6.2896e-07
7.90842e-08
-1.48079e-07
6.53816e-07
3.91756e-08
-1.39135e-07
6.69973e-07
-3.14925e-16
-1.34858e-07
6.78004e-07
-3.91756e-08
-1.34858e-07
6.78004e-07
-7.90842e-08
-1.39135e-07
6.69973e-07
-1.20041e-07
-1.48079e-07
6.53816e-07
-1.616e-07
-1.616e-07
6.2896e-07
-1.82694e-07
5.93525e-07
-1.97963e-07
1.82694e-07
5.49985e-07
-2.22677e-07
-2.22677e-07
1.34916e-07
5.93525e-07
-1.97963e-07
8.92766e-08
6.24371e-07
-1.8738e-07
4.42834e-08
6.44171e-07
-1.78601e-07
-2.57421e-17
6.53912e-07
-1.74558e-07
-4.42834e-08
6.53912e-07
-1.74558e-07
-8.92766e-08
6.44171e-07
-1.78601e-07
-1.34916e-07
6.24371e-07
-1.8738e-07
-1.82694e-07
5.93525e-07
-1.97963e-07
5.49985e-07
-2.22677e-07
-2.22677e-07
1.32247e-07
1.32247e-07
5.87107e-07
-1.50808e-07
-1.50808e-07
1.04243e-07
1.29912e-07
6.43208e-07
-1.51591e-07
7.12677e-08
1.26189e-07
6.8172e-07
-1.50563e-07
3.59894e-08
1.22582e-07
7.05487e-07
-1.48619e-07
-1.29239e-17
1.2066e-07
7.1684e-07
-1.47599e-07
-3.59894e-08
1.2066e-07
7.1684e-07
-1.47599e-07
-7.12677e-08
1.22582e-07
7.05487e-07
-1.48619e-07
-1.04243e-07
1.26189e-07
6.8172e-07
-1.50563e-07
-1.32247e-07
1.29912e-07
6.43208e-07
-1.51591e-07
1.32247e-07
5.87107e-07
-1.50808e-07
-1.50808e-07
1.29912e-07
1.04243e-07
6.43208e-07
-1.51591e-07
1.00166e-07
1.00166e-07
6.88453e-07
6.7378e-08
9.54746e-08
7.17318e-07
3.37074e-08
9.16247e-08
7.34601e-07
1.61738e-17
8.96032e-08
7.42768e-07
-3.37074e-08
8.96032e-08
7.42768e-07
-6.7378e-08
9.16247e-08
7.34601e-07
-1.00166e-07
9.54746e-08
7.17318e-07
-1.29912e-07
1.00166e-07
6.88453e-07
1.04243e-07
6.43208e-07
-1.51591e-07
1.26189e-07
7.12677e-08
6.8172e-07
-1.50563e-07
9.54746e-08
6.7378e-08
7.17318e-07
6.33681e-08
6.33681e-08
7.39109e-07
3.14783e-08
6.03197e-08
7.5209e-07
-7.42981e-18
5.87483e-08
7.5827e-07
-3.14783e-08
5.87483e-08
7.5827e-07
-6.33681e-08
6.03197e-08
7.5209e-07
-9.54746e-08
6.33681e-08
7.39109e-07
-1.26189e-07
6.7378e-08
7.17318e-07
7.12677e-08
6.8172e-07
-1.50563e-07
1.22582e-07
3.59894e-08
7.05487e-07
-1.48619e-07
9.16247e-08
3.37074e-08
7.34601e-07
6.03197e-08
3.14783e-08
7.5209e-07
2.98393e-08
2.98393e-08
7.62637e-07
-1.84152e-16
2.9003e-08
7.67736e-07
-2.98393e-08
2.9003e-08
7.67736e-07
-6.03197e-08
2.98393e-08
7.62637e-07
-9.16247e-08
3.14783e-08
7.5209e-07
-1.22582e-07
3.37074e-08
7.34601e-07
3.59894e-08
7.05487e-07
-1.48619e-07
1.2066e-07
-3.56385e-16
7.1684e-07
-1.47599e-07
8.96032e-08
-3.62533e-16
7.42768e-07
5.87483e-08
-1.00997e-16
7.5827e-07
2.9003e-08
-1.88248e-16
7.67736e-07
-2.91537e-16
-3.91756e-16
7.72362e-07
-2.9003e-08
-3.06139e-16
7.72362e-07
-5.87483e-08
-2.78906e-16
7.67736e-07
-8.96032e-08
-1.67823e-16
7.5827e-07
-1.2066e-07
-8.43148e-17
7.42768e-07
-1.63094e-17
7.1684e-07
-1.47599e-07
1.2066e-07
-3.59894e-08
7.1684e-07
-1.47599e-07
8.96032e-08
-3.37074e-08
7.42768e-07
5.87483e-08
-3.14783e-08
7.5827e-07
2.9003e-08
-2.98393e-08
7.67736e-07
-1.93347e-16
-2.9003e-08
7.72362e-07
-2.9003e-08
-2.9003e-08
7.72362e-07
-5.87483e-08
-2.98393e-08
7.67736e-07
-8.96032e-08
-3.14783e-08
7.5827e-07
-1.2066e-07
-3.37074e-08
7.42768e-07
-3.59894e-08
7.1684e-07
-1.47599e-07
1.22582e-07
-7.12677e-08
7.05487e-07
-1.48619e-07
9.16247e-08
-6.7378e-08
7.34601e-07
6.03197e-08
-6.33681e-08
7.5209e-07
2.98393e-08
-6.03197e-08
7.62637e-07
-3.0874e-16
-5.87483e-08
7.67736e-07
-2.98393e-08
-5.87483e-08
7.67736e-07
-6.03197e-08
-6.03197e-08
7.62637e-07
-9.16247e-08
-6.33681e-08
7.5209e-07
-1.22582e-07
-6.7378e-08
7.34601e-07
-7.12677e-08
7.05487e-07
-1.48619e-07
1.26189e-07
-1.04243e-07
6.8172e-07
-1.50563e-07
9.54746e-08
-1.00166e-07
7.17318e-07
6.33681e-08
-9.54746e-08
7.39109e-07
3.14783e-08
-9.16247e-08
7.5209e-07
-4.63378e-16
-8.96032e-08
7.5827e-07
-3.14783e-08
-8.96032e-08
7.5827e-07
-6.33681e-08
-9.16247e-08
7.5209e-07
-9.54746e-08
-9.54746e-08
7.39109e-07
-1.26189e-07
-1.00166e-07
7.17318e-07
-1.04243e-07
6.8172e-07
-1.50563e-07
1.29912e-07
-1.32247e-07
6.43208e-07
-1.51591e-07
1.00166e-07
-1.29912e-07
6.88453e-07
6.7378e-08
-1.26189e-07
7.17318e-07
3.37074e-08
-1.22582e-07
7.34601e-07
-3.73617e-16
-1.2066e-07
7.42768e-07
-3.37074e-08
-1.2066e-07
7.42768e-07
-6.7378e-08
-1.22582e-07
7.34601e-07
-1.00166e-07
-1.26189e-07
7.17318e-07
-1.29912e-07
-1.29912e-07
6.88453e-07
-1.32247e-07
6.43208e-07
-1.51591e-07
1.32247e-07
5.87107e-07
-1.50808e-07
-1.50808e-07
1.04243e-07
6.43208e-07
-1.51591e-07
7.12677e-08
6.8172e-07
-1.50563e-07
3.59894e-08
7.05487e-07
-1.48619e-07
-4.15551e-17
7.1684e-07
-1.47599e-07
-3.59894e-08
7.1684e-07
-1.47599e-07
-7.12677e-08
7.05487e-07
-1.48619e-07
-1.04243e-07
6.8172e-07
-1.50563e-07
-1.32247e-07
6.43208e-07
-1.51591e-07
5.87107e-07
-1.50808e-07
-1.50808e-07
1.09469e-07
1.09469e-07
5.96957e-07
-1.14394e-07
-1.14394e-07
9.21278e-08
1.1611e-07
6.6777e-07
-1.23332e-07
6.57468e-08
1.18704e-07
7.17315e-07
-1.27918e-07
3.40687e-08
1.19034e-07
7.481e-07
-1.29969e-07
-1.80757e-16
1.18878e-07
7.6278e-07
-1.30749e-07
-3.40687e-08
1.18878e-07
7.6278e-07
-1.30749e-07
-6.57468e-08
1.19034e-07
7.481e-07
-1.29969e-07
-9.21278e-08
1.18704e-07
7.17315e-07
-1.27918e-07
-1.09469e-07
1.1611e-07
6.6777e-07
-1.23332e-07
1.09469e-07
5.96957e-07
-1.14394e-07
-1.14394e-07
1.1611e-07
9.21278e-08
6.6777e-07
-1.23332e-07
9.57684e-08
9.57684e-08
7.29136e-07
6.73671e-08
9.62758e-08
7.68148e-07
3.45869e-08
9.54162e-08
7.90999e-07
-2.51347e-16
9.46907e-08
8.01542e-07
-3.45869e-08
9.46907e-08
8.01542e-07
-6.73671e-08
9.54162e-08
7.90999e-07
-9.57684e-08
9.62758e-08
7.68148e-07
-1.1611e-07
9.57684e-08
7.29136e-07
9.21278e-08
6.6777e-07
-1.23332e-07
1.18704e-07
6.57468e-08
7.17315e-07
-1.27918e-07
9.62758e-08
6.73671e-08
7.68148e-07
6.68434e-08
6.68434e-08
7.97973e-07
3.4058e-08
6.56785e-08
8.14613e-07
-2.21416e-16
6.48931e-08
8.22125e-07
-3.4058e-08
6.48931e-08
8.22125e-07
-6.68434e-08
6.56785e-08
8.14613e-07
-9.62758e-08
6.68434e-08
7.97973e-07
-1.18704e-07
6.73671e-08
7.68148e-07
6.57468e-08
7.17315e-07
-1.27918e-07
1.19034e-07
3.40687e-08
7.481e-07
-1.29969e-07
9.54162e-08
3.45869e-08
7.90999e-07
6.56785e-08
3.4058e-08
8.14613e-07
3.33055e-08
3.33055e-08
8.27383e-07
-2.77023e-16
3.28305e-08
8.33104e-07
-3.33055e-08
3.28305e-08
8.33104e-07
-6.56785e-08
3.33055e-08
8.27383e-07
-9.54162e-08
3.4058e-08
8.14613e-07
-1.19034e-07
3.45869e-08
7.90999e-07
3.40687e-08
7.481e-07
-1.29969e-07
1.18878e-07
-3.80067e-16
7.6278e-07
-1.30749e-07
9.46907e-08
-6.15633e-16
8.01542e-07
6.48931e-08
-4.64571e-16
8.22125e-07
3.28305e-08
-5.40603e-16
8.33104e-07
-2.82454e-16
-6.20884e-16
8.38023e-07
-3.28305e-08
-3.54909e-16
8.38023e-07
-6.48931e-08
-2.23061e-16
8.33104e-07
-9.46907e-08
-2.26746e-16
8.22125e-07
-1.18878e-07
-2.95507e-16
8.01542e-07
-2.46794e-16
7.6278e-07
-1.30749e-07
1.18878e-07
-3.40687e-08
7.6278e-07
-1.30749e-07
9.46907e-08
-3.45869e-08
8.01542e-07
6.48931e-08
-3.4058e-08
8.22125e-07
3.28305e-08
-3.33055e-08
8.33104e-07
-8.88031e-17
-3.28305e-08
8.38023e-07
-3.28305e-08
-3.28305e-08
8.38023e-07
-6.48931e-08
-3.33055e-08
8.33104e-07
-9.46907e-08
-3.4058e-08
8.22125e-07
-1.18878e-07
-3.45869e-08
8.01542e-07
-3.40687e-08
7.6278e-07
-1.30749e-07
1.19034e-07
-6.57468e-08
7.481e-07
-1.29969e-07
9.54162e-08
-6.73671e-08
7.90999e-07
6.56785e-08
-6.68434e-08
8.14613e-07
3.33055e-08
-6.56785e-08
8.27383e-07
-5.33785e-17
-6.48931e-08
8.33104e-07
-3.33055e-08
-6.48931e-08
8.33104e-07
-6.56785e-08
-6.56785e-08
8.27383e-07
-9.54162e-08
-6.68434e-08
8.14613e-07
-1.19034e-07
-6.73671e-08
7.90999e-07
-6.57468e-08
7.481e-07
-1.29969e-07
1.18704e-07
-9.21278e-08
7.17315e-07
-1.27918e-07
9.62758e-08
-9.57684e-08
7.68148e-07
6.68434e-08
-9.62758e-08
7.97973e-07
3.4058e-08
-9.54162e-08
8.14613e-07
-2.00844e-16
-9.46907e-08
8.22125e-07
-3.4058e-08
-9.46907e-08
8.22125e-07
-6.68434e-08
-9.54162e-08
8.14613e-07
-9.62758e-08
-9.62758e-08
7.97973e-07
-1.18704e-07
-9.57684e-08
7.68148e-07
-9.21278e-08
7.17315e-07
-1.27918e-07
1.1611e-07
-1.09469e-07
6.6777e-07
-1.23332e-07
9.57684e-08
-1.1611e-07
7.29136e-07
6.73671e-08
-1.18704e-07
7.68148e-07
3.45869e-08
-1.19034e-07
7.90999e-07
-4.50024e-16
-1.18878e-07
8.01542e-07
-3.45869e-08
-1.18878e-07
8.01542e-07
-6.73671e-08
-1.19034e-07
7.90999e-07
-9.57684e-08
-1.18704e-07
7.68148e-07
-1.1611e-07
-1.1611e-07
7.29136e-07
-1.09469e-07
6.6777e-07
-1.23332e-07
1.09469e-07
5.96957e-07
-1.14394e-07
-1.14394e-07
9.21278e-08
6.6777e-07
-1.23332e-07
6.57468e-08
7.17315e-07
-1.27918e-07
3.40687e-08
7.481e-07
-1.29969e-07
-3.64193e-17
7.6278e-07
-1.30749e-07
-3.40687e-08
7.6278e-07
-1.30749e-07
-6.57468e-08
7.481e-07
-1.29969e-07
-9.21278e-08
7.17315e-07
-1.27918e-07
-1.09469e-07
6.6777e-07
-1.23332e-07
5.96957e-07
-1.14394e-07
-1.14394e-07
6.30287e-08
6.30287e-08
5.95657e-07
-6.23786e-08
-6.23787e-08
5.55794e-08
7.16383e-08
6.75033e-07
-7.14521e-08
4.09509e-08
7.6819e-08
7.32153e-07
-7.70279e-08
2.16459e-08
7.94964e-08
7.683e-07
-8.03915e-08
3.50772e-17
8.05985e-08
7.85697e-07
-8.18699e-08
-2.16459e-08
8.05985e-08
7.85697e-07
-8.18699e-08
-4.09509e-08
7.94964e-08
7.683e-07
-8.03915e-08
-5.55794e-08
7.6819e-08
7.32153e-07
-7.70279e-08
-6.30287e-08
7.16383e-08
6.75033e-07
-7.14521e-08
6.30287e-08
5.95657e-07
-6.23786e-08
-6.23786e-08
7.16383e-08
5.55794e-08
6.75033e-07
-7.14521e-08
6.2066e-08
6.2066e-08
7.4828e-07
4.51565e-08
6.56798e-08
7.96196e-07
2.36572e-08
6.73083e-08
8.24686e-07
4.26159e-16
6.78945e-08
8.37903e-07
-2.36572e-08
6.78945e-08
8.37903e-07
-4.51565e-08
6.73083e-08
8.24686e-07
-6.2066e-08
6.56798e-08
7.96196e-07
-7.16383e-08
6.2066e-08
7.4828e-07
5.55794e-08
6.75033e-07
-7.14521e-08
7.6819e-08
4.09509e-08
7.32153e-07
-7.70279e-08
6.56798e-08
4.51565e-08
7.96196e-07
4.72512e-08
4.72512e-08
8.34831e-07
2.45797e-08
4.80574e-08
8.56535e-07
5.9593e-16
4.82902e-08
8.6631e-07
-2.45797e-08
4.82902e-08
8.6631e-07
-4.72512e-08
4.80574e-08
8.56535e-07
-6.56798e-08
4.72512e-08
8.34831e-07
-7.6819e-08
4.51565e-08
7.96196e-07
4.09509e-08
7.32153e-07
-7.70279e-08
7.94964e-08
2.16459e-08
7.683e-07
-8.03915e-08
6.73083e-08
2.36572e-08
8.24686e-07
4.80574e-08
2.45797e-08
8.56535e-07
2.48909e-08
2.48909e-08
8.73716e-07
2.38152e-16
2.49592e-08
8.81326e-07
-2.48909e-08
2.49592e-08
8.81326e-07
-4.80574e-08
2.48909e-08
8.73716e-07
-6.73083e-08
2.45797e-08
8.56535e-07
-7.94964e-08
2.36572e-08
8.24686e-07
2.16459e-08
7.683e-07
-8.03915e-08
8.05985e-08
-5.15098e-16
7.85697e-07
-8.18699e-08
6.78945e-08
-2.65604e-16
8.37903e-07
4.82902e-08
2.39795e-16
8.6631e-07
2.49592e-08
1.10943e-16
8.81326e-07
6.35015e-17
-1.87942e-16
8.87942e-07
-2.49592e-08
-1.21178e-16
8.87942e-07
-4.82902e-08
-1.65502e-17
8.81326e-07
-6.78945e-08
-2.65538e-16
8.6631e-07
-8.05985e-08
-6.57476e-16
8.37903e-07
-4.5787e-16
7.85697e-07
-8.18699e-08
8.05985e-08
-2.16459e-08
7.85697e-07
-8.18699e-08
6.78945e-08
-2.36572e-08
8.37903e-07
4.82902e-08
-2.45797e-08
8.6631e-07
2.49592e-08
-2.48909e-08
8.81326e-07
7.44896e-17
-2.49592e-08
8.87942e-07
-2.49592e-08
-2.49592e-08
8.87942e-07
-4.82902e-08
-2.48909e-08
8.81326e-07
-6.78945e-08
-2.45797e-08
8.6631e-07
-8.05985e-08
-2.36572e-08
8.37903e-07
-2.16459e-08
7.85697e-07
-8.18699e-08
7.94964e-08
-4.09509e-08
7.683e-07
-8.03915e-08
6.73083e-08
-4.51565e-08
8.24686e-07
4.80574e-08
-4.72512e-08
8.56535e-07
2.48909e-08
-4.80574e-08
8.73716e-07
-1.89208e-16
-4.82902e-08
8.81326e-07
-2.48909e-08
-4.82902e-08
8.81326e-07
-4.80574e-08
-4.80574e-08
8.73716e-07
-6.73083e-08
-4.72512e-08
8.56535e-07
-7.94964e-08
-4.51565e-08
8.24686e-07
-4.09509e-08
7.683e-07
-8.03915e-08
7.6819e-08
-5.55794e-08
7.32153e-07
-7.70279e-08
6.56798e-08
-6.2066e-08
7.96196e-07
4.72512e-08
-6.56798e-08
8.34831e-07
2.45797e-08
-6.73083e-08
8.56535e-07
-6.06959e-16
-6.78945e-08
8.6631e-07
-2.45797e-08
-6.78945e-08
8.6631e-07
-4.72512e-08
-6.73083e-08
8.56535e-07
-6.56798e-08
-6.56798e-08
8.34831e-07
-7.6819e-08
-6.2066e-08
7.96196e-07
-5.55794e-08
7.32153e-07
-7.70279e-08
7.16383e-08
-6.30287e-08
6.75033e-07
-7.14521e-08
6.2066e-08
-7.16383e-08
7.4828e-07
4.51565e-08
-7.6819e-08
7.96196e-07
2.36572e-08
-7.94964e-08
8.24686e-07
-1.0487e-15
-8.05985e-08
8.37903e-07
-2.36572e-08
-8.05985e-08
8.37903e-07
-4.51565e-08
-7.94964e-08
8.24686e-07
-6.2066e-08
-7.6819e-08
7.96196e-07
-7.16383e-08
-7.16383e-08
7.4828e-07
-6.30287e-08
6.75033e-07
-7.14521e-08
6.30287e-08
5.95657e-07
-6.23786e-08
-6.23786e-08
5.55794e-08
6.75033e-07
-7.14521e-08
4.09509e-08
7.32153e-07
-7.70279e-08
2.16459e-08
7.683e-07
-8.03915e-08
-3.66753e-16
7.85697e-07
-8.18699e-08
-2.16459e-08
7.85697e-07
-8.18699e-08
-4.09509e-08
7.683e-07
-8.03915e-08
-5.55794e-08
7.32153e-07
-7.70279e-08
-6.30287e-08
6.75033e-07
-7.14521e-08
5.95657e-07
-6.23786e-08
-6.23787e-08
3.68895e-08
3.68895e-08
5.92145e-07
-3.51333e-08
-3.51333e-08
3.3358e-08
4.32129e-08
6.76346e-07
-4.09944e-08
2.5077e-08
4.75669e-08
7.38064e-07
-4.51968e-08
1.34235e-08
5.016e-08
7.77676e-07
-4.78825e-08
1.31535e-16
5.13305e-08
7.969e-07
-4.91103e-08
-1.34235e-08
5.13305e-08
7.969e-07
-4.91103e-08
-2.5077e-08
5.016e-08
7.77676e-07
-4.78825e-08
-3.3358e-08
4.75669e-08
7.38064e-07
-4.51968e-08
-3.68895e-08
4.32129e-08
6.76346e-07
-4.09944e-08
3.68895e-08
5.92145e-07
-3.51333e-08
-3.51333e-08
4.32129e-08
3.3358e-08
6.76346e-07
-4.09944e-08
3.87694e-08
3.87694e-08
7.57167e-07
2.89086e-08
4.23289e-08
8.11295e-07
1.5375e-08
4.43272e-08
8.44052e-07
4.73393e-16
4.51995e-08
8.59409e-07
-1.5375e-08
4.51995e-08
8.59409e-07
-2.89086e-08
4.43272e-08
8.44052e-07
-3.87694e-08
4.23289e-08
8.11295e-07
-4.32129e-08
3.87694e-08
7.57167e-07
3.3358e-08
6.76346e-07
-4.09944e-08
4.75669e-08
2.5077e-08
7.38064e-07
-4.51968e-08
4.23289e-08
2.89086e-08
8.11295e-07
3.13202e-08
3.13202e-08
8.56848e-07
1.65695e-08
3.26153e-08
8.82998e-07
6.08447e-16
3.31613e-08
8.94917e-07
-1.65695e-08
3.31613e-08
8.94917e-07
-3.13202e-08
3.26153e-08
8.82998e-07
-4.23289e-08
3.13202e-08
8.56848e-07
-4.75669e-08
2.89086e-08
8.11295e-07
2.5077e-08
7.38064e-07
-4.51968e-08
5.016e-08
1.34235e-08
7.77676e-07
-4.78825e-08
4.43272e-08
1.5375e-08
8.44052e-07
3.26153e-08
1.65695e-08
8.82998e-07
1.71969e-08
1.71969e-08
9.04553e-07
2.80557e-16
1.7456e-08
9.14228e-07
-1.71969e-08
1.7456e-08
9.14228e-07
-3.26153e-08
1.71969e-08
9.04553e-07
-4.43272e-08
1.65695e-08
8.82998e-07
-5.016e-08
1.5375e-08
8.44052e-07
1.34235e-08
7.77676e-07
-4.78825e-08
5.13305e-08
-3.93432e-16
7.969e-07
-4.91103e-08
4.51995e-08
-1.18272e-16
8.59409e-07
3.31613e-08
2.99754e-16
8.94917e-07
1.7456e-08
2.75561e-16
9.14228e-07
3.62034e-16
1.07449e-16
9.22854e-07
-1.7456e-08
3.26168e-16
9.22854e-07
-3.31613e-08
4.17894e-16
9.14228e-07
-4.51995e-08
1.3686e-16
8.94917e-07
-5.13305e-08
-4.16235e-16
8.59409e-07
-4.39787e-16
7.969e-07
-4.91103e-08
5.13305e-08
-1.34235e-08
7.969e-07
-4.91103e-08
4.51995e-08
-1.5375e-08
8.59409e-07
3.31613e-08
-1.65695e-08
8.94917e-07
1.7456e-08
-1.71969e-08
9.14228e-07
4.88912e-16
-1.7456e-08
9.22854e-07
-1.7456e-08
-1.7456e-08
9.22854e-07
-3.31613e-08
-1.71969e-08
9.14228e-07
-4.51995e-08
-1.65695e-08
8.94917e-07
-5.13305e-08
-1.5375e-08
8.59409e-07
-1.34235e-08
7.969e-07
-4.91103e-08
5.016e-08
-2.5077e-08
7.77676e-07
-4.78825e-08
4.43272e-08
-2.89086e-08
8.44052e-07
3.26153e-08
-3.13202e-08
8.82998e-07
1.71969e-08
-3.26153e-08
9.04553e-07
1.92706e-16
-3.31613e-08
9.14228e-07
-1.71969e-08
-3.31613e-08
9.14228e-07
-3.26153e-08
-3.26153e-08
9.04553e-07
-4.43272e-08
-3.13202e-08
8.82998e-07
-5.016e-08
-2.89086e-08
8.44052e-07
-2.5077e-08
7.77676e-07
-4.78825e-08
4.75669e-08
-3.3358e-08
7.38064e-07
-4.51968e-08
4.23289e-08
-3.87694e-08
8.11295e-07
3.13202e-08
-4.23289e-08
8.56848e-07
1.65695e-08
-4.43272e-08
8.82998e-07
-2.34098e-16
-4.51995e-08
8.94917e-07
-1.65695e-08
-4.51995e-08
8.94917e-07
-3.13202e-08
-4.43272e-08
8.82998e-07
-4.23289e-08
-4.23289e-08
8.56848e-07
-4.75669e-08
-3.87694e-08
8.11295e-07
-3.3358e-08
7.38064e-07
-4.51968e-08
4.32129e-08
-3.68895e-08
6.76346e-07
-4.09944e-08
3.87694e-08
-4.32129e-08
7.57167e-07
2.89086e-08
-4.75669e-08
8.11295e-07
1.5375e-08
-5.016e-08
8.44052e-07
-7.74288e-16
-5.13305e-08
8.59409e-07
-1.5375e-08
-5.13305e-08
8.59409e-07
-2.89086e-08
-5.016e-08
8.44052e-07
-3.87694e-08
-4.75669e-08
8.11295e-07
-4.32129e-08
-4.32129e-08
7.57167e-07
-3.68895e-08
6.76346e-07
-4.09944e-08
3.68895e-08
5.92145e-07
-3.51333e-08
-3.51333e-08
3.3358e-08
6.76346e-07
-4.09944e-08
2.5077e-08
7.38064e-07
-4.51968e-08
1.34235e-08
7.77676e-07
-4.78825e-08
-1.14429e-16
7.969e-07
-4.91103e-08
-1.34235e-08
7.969e-07
-4.91103e-08
-2.5077e-08
7.77676e-07
-4.78825e-08
-3.3358e-08
7.38064e-07
-4.51968e-08
-3.68895e-08
6.76346e-07
-4.09944e-08
5.92145e-07
-3.51333e-08
-3.51333e-08
1.79988e-08
1.79988e-08
5.88829e-07
-1.63412e-08
-1.63412e-08
1.69125e-08
2.2164e-08
6.75036e-07
-1.97669e-08
1.30834e-08
2.53612e-08
7.39008e-07
-2.2476e-08
7.1273e-09
2.74618e-08
7.80495e-07
-2.43242e-08
3.21321e-16
2.84735e-08
8.00764e-07
-2.52097e-08
-7.1273e-09
2.84735e-08
8.00764e-07
-2.52097e-08
-1.30834e-08
2.74618e-08
7.80495e-07
-2.43242e-08
-1.69125e-08
2.53612e-08
7.39008e-07
-2.2476e-08
-1.79988e-08
2.2164e-08
6.75036e-07
-1.97669e-08
1.79988e-08
5.88829e-07
-1.63412e-08
-1.63412e-08
2.2164e-08
1.69125e-08
6.75036e-07
-1.97669e-08
2.08511e-08
2.08511e-08
7.59793e-07
1.6081e-08
2.37984e-08
8.17628e-07
8.72846e-09
2.56739e-08
8.53193e-07
1.01041e-15
2.65674e-08
8.70044e-07
-8.72846e-09
2.65674e-08
8.70044e-07
-1.6081e-08
2.56739e-08
8.53193e-07
-2.08511e-08
2.37984e-08
8.17628e-07
-2.2164e-08
2.08511e-08
7.59793e-07
1.69125e-08
6.75036e-07
-1.97669e-08
2.53612e-08
1.30834e-08
7.39008e-07
-2.2476e-08
2.37984e-08
1.6081e-08
8.17628e-07
1.8276e-08
1.8276e-08
8.67893e-07
9.88433e-09
1.96424e-08
8.97421e-07
1.18509e-15
2.02845e-08
9.11084e-07
-9.88432e-09
2.02845e-08
9.11084e-07
-1.8276e-08
1.96424e-08
8.97421e-07
-2.37984e-08
1.8276e-08
8.67893e-07
-2.53612e-08
1.6081e-08
8.17628e-07
1.30834e-08
7.39008e-07
-2.2476e-08
2.74618e-08
7.1273e-09
7.80495e-07
-2.43242e-08
2.56739e-08
8.72846e-09
8.53193e-07
1.96424e-08
9.88433e-09
8.97421e-07
1.05964e-08
1.05964e-08
9.22645e-07
6.90651e-16
1.09282e-08
9.34181e-07
-1.05963e-08
1.09282e-08
9.34181e-07
-1.96424e-08
1.05964e-08
9.22645e-07
-2.56739e-08
9.88432e-09
8.97421e-07
-2.74618e-08
8.72846e-09
8.53193e-07
7.1273e-09
7.80495e-07
-2.43242e-08
2.84735e-08
-2.46594e-16
8.00764e-07
-2.52097e-08
2.65674e-08
3.10027e-16
8.70044e-07
2.02845e-08
7.3273e-16
9.11084e-07
1.09282e-08
6.79041e-16
9.34181e-07
5.77782e-16
4.47431e-16
9.4471e-07
-1.09282e-08
5.18809e-16
9.4471e-07
-2.02845e-08
3.48877e-16
9.34181e-07
-2.65674e-08
6.81425e-17
9.11085e-07
-2.84735e-08
-3.60582e-16
8.70044e-07
-3.63892e-16
8.00764e-07
-2.52097e-08
2.84735e-08
-7.1273e-09
8.00764e-07
-2.52097e-08
2.65674e-08
-8.72846e-09
8.70044e-07
2.02845e-08
-9.88432e-09
9.11084e-07
1.09282e-08
-1.05963e-08
9.34181e-07
5.87432e-16
-1.09282e-08
9.4471e-07
-1.09282e-08
-1.09282e-08
9.4471e-07
-2.02845e-08
-1.05964e-08
9.34181e-07
-2.65674e-08
-9.88432e-09
9.11084e-07
-2.84735e-08
-8.72846e-09
8.70044e-07
-7.1273e-09
8.00764e-07
-2.52097e-08
2.74618e-08
-1.30834e-08
7.80495e-07
-2.43242e-08
2.56739e-08
-1.6081e-08
8.53193e-07
1.96424e-08
-1.8276e-08
8.97421e-07
1.05964e-08
-1.96424e-08
9.22645e-07
2.08446e-16
-2.02845e-08
9.34181e-07
-1.05963e-08
-2.02845e-08
9.34181e-07
-1.96424e-08
-1.96424e-08
9.22645e-07
-2.56739e-08
-1.8276e-08
8.97421e-07
-2.74618e-08
-1.6081e-08
8.53193e-07
-1.30834e-08
7.80495e-07
-2.43242e-08
2.53612e-08
-1.69125e-08
7.39008e-07
-2.2476e-08
2.37984e-08
-2.08511e-08
8.17628e-07
1.8276e-08
-2.37984e-08
8.67893e-07
9.88432e-09
-2.56739e-08
8.97421e-07
-1.61388e-16
-2.65674e-08
9.11084e-07
-9.88432e-09
-2.65674e-08
9.11085e-07
-1.8276e-08
-2.56739e-08
8.97421e-07
-2.37984e-08
-2.37984e-08
8.67893e-07
-2.53612e-08
-2.08511e-08
8.17628e-07
-1.69125e-08
7.39008e-07
-2.2476e-08
2.2164e-08
-1.79988e-08
6.75036e-07
-1.97669e-08
2.08511e-08
-2.2164e-08
7.59793e-07
1.6081e-08
-2.53612e-08
8.17628e-07
8.72846e-09
-2.74618e-08
8.53193e-07
-4.81017e-16
-2.84735e-08
8.70044e-07
-8.72846e-09
-2.84735e-08
8.70044e-07
-1.6081e-08
-2.74618e-08
8.53193e-07
-2.08511e-08
-2.53612e-08
8.17628e-07
-2.2164e-08
-2.2164e-08
7.59793e-07
-1.79988e-08
6.75036e-07
-1.97669e-08
1.79988e-08
5.88829e-07
-1.63412e-08
-1.63412e-08
1.69125e-08
6.75036e-07
-1.97669e-08
1.30834e-08
7.39008e-07
-2.2476e-08
7.1273e-09
7.80495e-07
-2.43242e-08
7.83469e-17
8.00764e-07
-2.52097e-08
-7.1273e-09
8.00764e-07
-2.52097e-08
-1.30834e-08
7.80495e-07
-2.43242e-08
-1.69125e-08
7.39008e-07
-2.2476e-08
-1.79988e-08
6.75036e-07
-1.97669e-08
5.88829e-07
-1.63412e-08
-1.63412e-08
7.65499e-09
7.65499e-09
5.8676e-07
-6.62015e-09
-6.62015e-09
7.47748e-09
9.90872e-09
6.73576e-07
-8.27133e-09
5.95559e-09
1.18063e-08
7.38425e-07
-9.70163e-09
3.30256e-09
1.3147e-08
7.80733e-07
-1.07325e-08
4.54051e-16
1.38225e-08
8.0149e-07
-1.12457e-08
-3.30256e-09
1.38225e-08
8.0149e-07
-1.12457e-08
-5.95559e-09
1.3147e-08
7.80733e-07
-1.07325e-08
-7.47747e-09
1.18063e-08
7.38425e-07
-9.70163e-09
-7.65499e-09
9.90872e-09
6.73576e-07
-8.27133e-09
7.65499e-09
5.8676e-07
-6.62015e-09
-6.62015e-09
9.90872e-09
7.47747e-09
6.73576e-07
-8.27133e-09
9.80829e-09
9.80829e-09
7.59994e-07
7.8423e-09
1.17352e-08
8.19665e-07
4.34909e-09
1.3066e-08
8.56767e-07
7.53337e-16
1.37327e-08
8.74483e-07
-4.34909e-09
1.37327e-08
8.74483e-07
-7.8423e-09
1.3066e-08
8.56767e-07
-9.80829e-09
1.17352e-08
8.19665e-07
-9.90872e-09
9.80829e-09
7.59994e-07
7.47747e-09
6.73576e-07
-8.27133e-09
1.18063e-08
5.95559e-09
7.38425e-07
-9.70163e-09
1.17352e-08
7.8423e-09
8.19665e-07
9.37779e-09
9.37779e-09
8.72608e-07
5.19085e-09
1.04198e-08
9.04254e-07
7.47599e-16
1.09363e-08
9.19072e-07
-5.19085e-09
1.09363e-08
9.19072e-07
-9.37779e-09
1.04198e-08
9.04254e-07
-1.17352e-08
9.37779e-09
8.72608e-07
-1.18063e-08
7.8423e-09
8.19665e-07
5.95559e-09
7.38425e-07
-9.70163e-09
1.3147e-08
3.30256e-09
7.80733e-07
-1.07325e-08
1.3066e-08
4.34909e-09
8.56767e-07
1.04198e-08
5.19085e-09
9.04254e-07
5.75653e-09
5.75653e-09
9.31971e-07
4.55158e-16
6.0348e-09
9.44839e-07
-5.75653e-09
6.0348e-09
9.44839e-07
-1.04198e-08
5.75653e-09
9.31971e-07
-1.3066e-08
5.19085e-09
9.04254e-07
-1.3147e-08
4.34909e-09
8.56767e-07
3.30256e-09
7.80733e-07
-1.07325e-08
1.38225e-08
-2.31597e-16
8.0149e-07
-1.12457e-08
1.37327e-08
7.50604e-17
8.74483e-07
1.09363e-08
4.91722e-16
9.19072e-07
6.0348e-09
5.83916e-16
9.44839e-07
6.30457e-16
5.66391e-16
9.5678e-07
-6.0348e-09
6.79724e-16
9.5678e-07
-1.09363e-08
4.63531e-16
9.44839e-07
-1.37327e-08
2.77114e-16
9.19072e-07
-1.38225e-08
-1.08805e-16
8.74483e-07
-3.20461e-16
8.0149e-07
-1.12457e-08
1.38225e-08
-3.30256e-09
8.0149e-07
-1.12457e-08
1.37327e-08
-4.34909e-09
8.74483e-07
1.09363e-08
-5.19085e-09
9.19072e-07
6.0348e-09
-5.75653e-09
9.44839e-07
7.18661e-16
-6.0348e-09
9.5678e-07
-6.0348e-09
-6.0348e-09
9.5678e-07
-1.09363e-08
-5.75653e-09
9.44839e-07
-1.37327e-08
-5.19085e-09
9.19072e-07
-1.38225e-08
-4.34909e-09
8.74483e-07
-3.30256e-09
8.0149e-07
-1.12457e-08
1.3147e-08
-5.95559e-09
7.80733e-07
-1.07325e-08
1.3066e-08
-7.8423e-09
8.56767e-07
1.04198e-08
-9.37779e-09
9.04254e-07
5.75653e-09
-1.04198e-08
9.31971e-07
3.968e-16
-1.09363e-08
9.44839e-07
-5.75653e-09
-1.09363e-08
9.44839e-07
-1.04198e-08
-1.04198e-08
9.31971e-07
-1.3066e-08
-9.37779e-09
9.04254e-07
-1.3147e-08
-7.8423e-09
8.56767e-07
-5.95559e-09
7.80733e-07
-1.07325e-08
1.18063e-08
-7.47748e-09
7.38425e-07
-9.70163e-09
1.17352e-08
-9.80829e-09
8.19665e-07
9.37779e-09
-1.17352e-08
8.72608e-07
5.19085e-09
-1.3066e-08
9.04254e-07
3.26176e-17
-1.37327e-08
9.19072e-07
-5.19085e-09
-1.37327e-08
9.19072e-07
-9.37779e-09
-1.3066e-08
9.04254e-07
-1.17352e-08
-1.17352e-08
8.72608e-07
-1.18063e-08
-9.80829e-09
8.19665e-07
-7.47748e-09
7.38425e-07
-9.70163e-09
9.90872e-09
-7.65499e-09
6.73576e-07
-8.27133e-09
9.80829e-09
-9.90872e-09
7.59994e-07
7.8423e-09
-1.18063e-08
8.19665e-07
4.34909e-09
-1.3147e-08
8.56767e-07
-2.32327e-16
-1.38225e-08
8.74483e-07
-4.34909e-09
-1.38225e-08
8.74483e-07
-7.8423e-09
-1.3147e-08
8.56767e-07
-9.80829e-09
-1.18063e-08
8.19665e-07
-9.90872e-09
-9.90872e-09
7.59994e-07
-7.65499e-09
6.73576e-07
-8.27133e-09
7.65499e-09
5.8676e-07
-6.62015e-09
-6.62015e-09
7.47747e-09
6.73576e-07
-8.27133e-09
5.95559e-09
7.38425e-07
-9.70163e-09
3.30256e-09
7.80733e-07
-1.07325e-08
-5.81162e-18
8.0149e-07
-1.12457e-08
-3.30256e-09
8.0149e-07
-1.12457e-08
-5.95559e-09
7.80733e-07
-1.07325e-08
-7.47748e-09
7.38425e-07
-9.70163e-09
-7.65499e-09
6.73576e-07
-8.27133e-09
5.8676e-07
-6.62015e-09
-6.62015e-09
2.87061e-09
2.8706e-09
5.85666e-07
-2.32359e-09
-2.32359e-09
2.94502e-09
3.94826e-09
6.72587e-07
-3.03359e-09
2.42958e-09
4.92537e-09
7.37714e-07
-3.69954e-09
1.37545e-09
5.65385e-09
7.80334e-07
-4.20066e-09
4.53422e-16
6.03321e-09
8.0129e-07
-4.45833e-09
-1.37545e-09
6.03321e-09
8.0129e-07
-4.45833e-09
-2.42958e-09
5.65385e-09
7.80334e-07
-4.20066e-09
-2.94502e-09
4.92537e-09
7.37714e-07
-3.69954e-09
-2.8706e-09
3.94826e-09
6.72587e-07
-3.03359e-09
2.8706e-09
5.85666e-07
-2.32359e-09
-2.32359e-09
3.94826e-09
2.94502e-09
6.72587e-07
-3.03359e-09
4.14794e-09
4.14794e-09
7.59595e-07
3.4525e-09
5.21965e-09
8.20066e-07
1.95946e-09
6.00287e-09
8.57911e-07
7.96002e-16
6.40842e-09
8.76067e-07
-1.95945e-09
6.40842e-09
8.76067e-07
-3.4525e-09
6.00287e-09
8.57911e-07
-4.14794e-09
5.21965e-09
8.20066e-07
-3.94826e-09
4.14794e-09
7.59595e-07
2.94502e-09
6.72587e-07
-3.03359e-09
4.92537e-09
2.42958e-09
7.37714e-07
-3.69954e-09
5.21965e-09
3.4525e-09
8.20066e-07
4.35071e-09
4.35071e-09
8.74346e-07
2.46615e-09
4.99585e-09
9.07146e-07
7.4437e-16
5.32615e-09
9.2262e-07
-2.46615e-09
5.32615e-09
9.2262e-07
-4.3507e-09
4.99585e-09
9.07146e-07
-5.21965e-09
4.35071e-09
8.74346e-07
-4.92537e-09
3.4525e-09
8.20066e-07
2.42958e-09
7.37714e-07
-3.69954e-09
5.65385e-09
1.37545e-09
7.80334e-07
-4.20066e-09
6.00287e-09
1.95946e-09
8.57911e-07
4.99585e-09
2.46615e-09
9.07146e-07
2.8262e-09
2.8262e-09
9.36311e-07
5.40437e-16
3.00905e-09
9.49982e-07
-2.8262e-09
3.00905e-09
9.49982e-07
-4.99585e-09
2.8262e-09
9.36311e-07
-6.00287e-09
2.46615e-09
9.07146e-07
-5.65385e-09
1.95945e-09
8.57911e-07
1.37545e-09