/*--------------------------------*- C++ -*----------------------------------*\
| =========                 |                                                 |
| \\      /  F ield         | OpenFOAM: The Open Source CFD Toolbox           |
|  \\    /   O peration     | Version:  2412                                  |
|   \\  /    A nd           | Website:  www.openfoam.com                      |
|    \\/     M anipulation  |                                                 |
\*---------------------------------------------------------------------------*/
FoamFile
{
    version     2.0;
    format      ascii;
    arch        "LSB;label=32;scalar=64";
    class       volVectorField;
    location    "9.7";
    object      U;
}
// * * * * * * * * * * * * * * * * * * * * * * * * * * * * * * * * * * * * * //

dimensions      [0 1 -1 0 0 0 0];

internalField   nonuniform List<vector> 
15000
(
(0.00119841 0.00119841 0.0103775)
(0.000884731 0.00111852 0.0103251)
(0.000602525 0.00109055 0.0102822)
(0.00035371 0.00106367 0.0102545)
(0.000116173 0.00105138 0.0102418)
(-0.000116173 0.00105138 0.0102418)
(-0.00035371 0.00106367 0.0102545)
(-0.000602525 0.00109055 0.0102822)
(-0.000884731 0.00111852 0.0103251)
(-0.00119841 0.00119841 0.0103775)
(0.00111852 0.000884731 0.0103251)
(0.000831893 0.000831893 0.0102593)
(0.000569474 0.00079451 0.0102178)
(0.000332372 0.00076847 0.0101962)
(0.000109108 0.000756025 0.0101872)
(-0.000109108 0.000756025 0.0101872)
(-0.000332372 0.00076847 0.0101962)
(-0.000569474 0.00079451 0.0102178)
(-0.000831893 0.000831893 0.0102593)
(-0.00111852 0.000884731 0.0103251)
(0.00109055 0.000602525 0.0102822)
(0.00079451 0.000569474 0.0102178)
(0.000540497 0.000540497 0.0101851)
(0.000314034 0.000519964 0.0101702)
(0.000102936 0.000509795 0.0101645)
(-0.000102936 0.000509795 0.0101645)
(-0.000314034 0.000519964 0.0101702)
(-0.000540497 0.000540497 0.0101851)
(-0.00079451 0.000569474 0.0102178)
(-0.00109055 0.000602525 0.0102822)
(0.00106367 0.00035371 0.0102545)
(0.00076847 0.000332372 0.0101962)
(0.000519964 0.000314034 0.0101702)
(0.000301007 0.000301007 0.0101592)
(9.85202e-05 0.000294467 0.010155)
(-9.85202e-05 0.000294467 0.010155)
(-0.000301007 0.000301007 0.0101592)
(-0.000519964 0.000314034 0.0101702)
(-0.00076847 0.000332372 0.0101962)
(-0.00106367 0.00035371 0.0102545)
(0.00105138 0.000116173 0.0102418)
(0.000756025 0.000109108 0.0101872)
(0.000509795 0.000102936 0.0101645)
(0.000294467 9.85202e-05 0.010155)
(9.62904e-05 9.62904e-05 0.0101512)
(-9.62905e-05 9.62904e-05 0.0101512)
(-0.000294467 9.85202e-05 0.010155)
(-0.000509795 0.000102936 0.0101645)
(-0.000756025 0.000109108 0.0101872)
(-0.00105138 0.000116173 0.0102418)
(0.00105138 -0.000116173 0.0102418)
(0.000756025 -0.000109108 0.0101872)
(0.000509795 -0.000102936 0.0101645)
(0.000294467 -9.85202e-05 0.010155)
(9.62904e-05 -9.62905e-05 0.0101512)
(-9.62904e-05 -9.62904e-05 0.0101512)
(-0.000294467 -9.85202e-05 0.010155)
(-0.000509795 -0.000102936 0.0101645)
(-0.000756025 -0.000109108 0.0101872)
(-0.00105138 -0.000116173 0.0102418)
(0.00106367 -0.00035371 0.0102545)
(0.00076847 -0.000332372 0.0101962)
(0.000519964 -0.000314034 0.0101702)
(0.000301007 -0.000301007 0.0101592)
(9.85202e-05 -0.000294467 0.010155)
(-9.85202e-05 -0.000294467 0.010155)
(-0.000301007 -0.000301007 0.0101592)
(-0.000519964 -0.000314034 0.0101702)
(-0.00076847 -0.000332372 0.0101962)
(-0.00106367 -0.00035371 0.0102545)
(0.00109055 -0.000602525 0.0102822)
(0.00079451 -0.000569474 0.0102178)
(0.000540497 -0.000540497 0.0101851)
(0.000314034 -0.000519964 0.0101702)
(0.000102936 -0.000509795 0.0101645)
(-0.000102936 -0.000509795 0.0101645)
(-0.000314034 -0.000519964 0.0101702)
(-0.000540497 -0.000540497 0.0101851)
(-0.00079451 -0.000569474 0.0102178)
(-0.00109055 -0.000602525 0.0102822)
(0.00111852 -0.000884731 0.0103251)
(0.000831893 -0.000831893 0.0102593)
(0.000569474 -0.00079451 0.0102178)
(0.000332372 -0.00076847 0.0101962)
(0.000109108 -0.000756025 0.0101872)
(-0.000109108 -0.000756025 0.0101872)
(-0.000332372 -0.00076847 0.0101962)
(-0.000569474 -0.00079451 0.0102178)
(-0.000831893 -0.000831893 0.0102593)
(-0.00111852 -0.000884731 0.0103251)
(0.00119841 -0.00119841 0.0103775)
(0.000884731 -0.00111852 0.0103251)
(0.000602525 -0.00109055 0.0102822)
(0.00035371 -0.00106367 0.0102545)
(0.000116173 -0.00105138 0.0102418)
(-0.000116173 -0.00105138 0.0102418)
(-0.00035371 -0.00106367 0.0102545)
(-0.000602525 -0.00109055 0.0102822)
(-0.000884731 -0.00111852 0.0103251)
(-0.00119841 -0.00119841 0.0103775)
(0.0008297 0.0008297 0.0126976)
(0.000658305 0.000879199 0.0126618)
(0.000469557 0.000907808 0.0125622)
(0.000281105 0.000918585 0.0124673)
(9.31126e-05 0.000923167 0.0124138)
(-9.31126e-05 0.000923167 0.0124138)
(-0.000281105 0.000918585 0.0124673)
(-0.000469557 0.000907808 0.0125622)
(-0.000658305 0.000879199 0.0126618)
(-0.0008297 0.0008297 0.0126976)
(0.000879199 0.000658305 0.0126618)
(0.000683446 0.000683446 0.0124881)
(0.000479306 0.000689705 0.0122949)
(0.000282619 0.000687131 0.0121507)
(9.31291e-05 0.000684793 0.0120766)
(-9.31291e-05 0.000684793 0.0120766)
(-0.000282619 0.000687131 0.0121507)
(-0.000479306 0.000689705 0.0122949)
(-0.000683446 0.000683446 0.0124881)
(-0.000879199 0.000658305 0.0126618)
(0.000907808 0.000469557 0.0125622)
(0.000689705 0.000479306 0.0122949)
(0.000476376 0.000476376 0.0120563)
(0.000277969 0.000470007 0.0118941)
(9.12182e-05 0.000466033 0.0118143)
(-9.12182e-05 0.000466033 0.0118143)
(-0.000277969 0.000470007 0.0118941)
(-0.000476376 0.000476376 0.0120563)
(-0.000689705 0.000479306 0.0122949)
(-0.000907808 0.000469557 0.0125622)
(0.000918585 0.000281105 0.0124673)
(0.000687131 0.000282619 0.0121507)
(0.000470007 0.000277969 0.0118941)
(0.000272652 0.000272652 0.0117276)
(8.92603e-05 0.000269587 0.0116473)
(-8.92603e-05 0.000269587 0.0116473)
(-0.000272652 0.000272652 0.0117276)
(-0.000470007 0.000277969 0.0118941)
(-0.000687131 0.000282619 0.0121507)
(-0.000918585 0.000281105 0.0124673)
(0.000923167 9.31126e-05 0.0124138)
(0.000684793 9.31291e-05 0.0120766)
(0.000466033 9.12182e-05 0.0118143)
(0.000269587 8.92603e-05 0.0116473)
(8.81565e-05 8.81565e-05 0.0115672)
(-8.81565e-05 8.81565e-05 0.0115672)
(-0.000269587 8.92603e-05 0.0116473)
(-0.000466033 9.12182e-05 0.0118143)
(-0.000684793 9.31291e-05 0.0120766)
(-0.000923167 9.31126e-05 0.0124138)
(0.000923167 -9.31126e-05 0.0124138)
(0.000684793 -9.31291e-05 0.0120766)
(0.000466033 -9.12182e-05 0.0118143)
(0.000269587 -8.92603e-05 0.0116473)
(8.81565e-05 -8.81566e-05 0.0115672)
(-8.81565e-05 -8.81566e-05 0.0115672)
(-0.000269587 -8.92603e-05 0.0116473)
(-0.000466033 -9.12182e-05 0.0118143)
(-0.000684793 -9.31291e-05 0.0120766)
(-0.000923167 -9.31126e-05 0.0124138)
(0.000918585 -0.000281105 0.0124673)
(0.000687131 -0.000282619 0.0121507)
(0.000470007 -0.000277969 0.0118941)
(0.000272652 -0.000272652 0.0117276)
(8.92603e-05 -0.000269587 0.0116473)
(-8.92603e-05 -0.000269587 0.0116473)
(-0.000272652 -0.000272652 0.0117276)
(-0.000470007 -0.000277969 0.0118941)
(-0.000687131 -0.000282619 0.0121507)
(-0.000918585 -0.000281105 0.0124673)
(0.000907808 -0.000469557 0.0125622)
(0.000689705 -0.000479306 0.0122949)
(0.000476376 -0.000476376 0.0120563)
(0.000277969 -0.000470007 0.0118941)
(9.12182e-05 -0.000466033 0.0118143)
(-9.12182e-05 -0.000466033 0.0118143)
(-0.000277969 -0.000470007 0.0118941)
(-0.000476376 -0.000476376 0.0120563)
(-0.000689705 -0.000479306 0.0122949)
(-0.000907808 -0.000469557 0.0125622)
(0.000879199 -0.000658305 0.0126618)
(0.000683446 -0.000683446 0.0124881)
(0.000479306 -0.000689705 0.0122949)
(0.000282619 -0.000687131 0.0121507)
(9.31291e-05 -0.000684793 0.0120766)
(-9.31291e-05 -0.000684793 0.0120766)
(-0.000282619 -0.000687131 0.0121507)
(-0.000479306 -0.000689705 0.0122949)
(-0.000683446 -0.000683446 0.0124881)
(-0.000879199 -0.000658305 0.0126618)
(0.0008297 -0.0008297 0.0126976)
(0.000658305 -0.000879199 0.0126618)
(0.000469557 -0.000907808 0.0125622)
(0.000281105 -0.000918585 0.0124673)
(9.31126e-05 -0.000923167 0.0124138)
(-9.31126e-05 -0.000923167 0.0124138)
(-0.000281105 -0.000918585 0.0124673)
(-0.000469557 -0.000907808 0.0125622)
(-0.000658305 -0.000879199 0.0126618)
(-0.0008297 -0.0008297 0.0126976)
(0.000674003 0.000674003 0.0125251)
(0.000566113 0.000765389 0.0128288)
(0.000427998 0.000826936 0.0129422)
(0.000265103 0.000862434 0.0129645)
(8.93665e-05 0.000878907 0.0129614)
(-8.93665e-05 0.000878907 0.0129614)
(-0.000265103 0.000862434 0.0129645)
(-0.000427998 0.000826936 0.0129422)
(-0.000566113 0.000765389 0.0128288)
(-0.000674003 0.000674003 0.0125251)
(0.000765389 0.000566113 0.0128288)
(0.000639121 0.000639121 0.0129619)
(0.000473129 0.000680664 0.0129246)
(0.000288868 0.000700746 0.0128494)
(9.68287e-05 0.000708895 0.0127998)
(-9.68287e-05 0.000708895 0.0127998)
(-0.000288868 0.000700746 0.0128494)
(-0.000473129 0.000680664 0.0129246)
(-0.000639121 0.000639121 0.0129619)
(-0.000765389 0.000566113 0.0128288)
(0.000826936 0.000427998 0.0129422)
(0.000680664 0.000473129 0.0129246)
(0.000496268 0.000496268 0.012783)
(0.000299615 0.000505688 0.0126489)
(9.99456e-05 0.000508836 0.0125739)
(-9.99456e-05 0.000508836 0.0125739)
(-0.000299615 0.000505688 0.0126489)
(-0.000496268 0.000496268 0.012783)
(-0.000680664 0.000473129 0.0129246)
(-0.000826936 0.000427998 0.0129422)
(0.000862434 0.000265103 0.0129645)
(0.000700746 0.000288868 0.0128494)
(0.000505688 0.000299615 0.0126489)
(0.000303229 0.000303229 0.0124857)
(0.000100852 0.000304111 0.0123995)
(-0.000100852 0.000304111 0.0123995)
(-0.000303229 0.000303229 0.0124857)
(-0.000505688 0.000299615 0.0126489)
(-0.000700746 0.000288868 0.0128494)
(-0.000862434 0.000265103 0.0129645)
(0.000878907 8.93665e-05 0.0129614)
(0.000708895 9.68287e-05 0.0127998)
(0.000508836 9.99456e-05 0.0125739)
(0.000304111 0.000100852 0.0123995)
(0.000101002 0.000101002 0.0123092)
(-0.000101002 0.000101002 0.0123092)
(-0.000304111 0.000100852 0.0123995)
(-0.000508836 9.99456e-05 0.0125739)
(-0.000708895 9.68287e-05 0.0127998)
(-0.000878907 8.93665e-05 0.0129614)
(0.000878907 -8.93665e-05 0.0129614)
(0.000708895 -9.68287e-05 0.0127998)
(0.000508836 -9.99456e-05 0.0125739)
(0.000304111 -0.000100852 0.0123995)
(0.000101002 -0.000101002 0.0123092)
(-0.000101002 -0.000101002 0.0123092)
(-0.000304111 -0.000100852 0.0123995)
(-0.000508836 -9.99456e-05 0.0125739)
(-0.000708895 -9.68287e-05 0.0127998)
(-0.000878907 -8.93665e-05 0.0129614)
(0.000862434 -0.000265103 0.0129645)
(0.000700746 -0.000288868 0.0128494)
(0.000505688 -0.000299615 0.0126489)
(0.000303229 -0.000303229 0.0124857)
(0.000100852 -0.000304111 0.0123995)
(-0.000100852 -0.000304111 0.0123995)
(-0.000303229 -0.000303229 0.0124857)
(-0.000505688 -0.000299615 0.0126489)
(-0.000700746 -0.000288868 0.0128494)
(-0.000862434 -0.000265103 0.0129645)
(0.000826936 -0.000427998 0.0129422)
(0.000680664 -0.000473129 0.0129246)
(0.000496268 -0.000496268 0.012783)
(0.000299615 -0.000505688 0.0126489)
(9.99456e-05 -0.000508836 0.0125739)
(-9.99456e-05 -0.000508836 0.0125739)
(-0.000299615 -0.000505688 0.0126489)
(-0.000496268 -0.000496268 0.012783)
(-0.000680664 -0.000473129 0.0129246)
(-0.000826936 -0.000427998 0.0129422)
(0.000765389 -0.000566113 0.0128288)
(0.000639121 -0.000639121 0.0129619)
(0.000473129 -0.000680664 0.0129246)
(0.000288868 -0.000700746 0.0128494)
(9.68287e-05 -0.000708895 0.0127998)
(-9.68287e-05 -0.000708895 0.0127998)
(-0.000288868 -0.000700746 0.0128494)
(-0.000473129 -0.000680664 0.0129246)
(-0.000639121 -0.000639121 0.0129619)
(-0.000765389 -0.000566113 0.0128288)
(0.000674003 -0.000674003 0.0125251)
(0.000566113 -0.000765389 0.0128288)
(0.000427998 -0.000826936 0.0129422)
(0.000265103 -0.000862434 0.0129645)
(8.93665e-05 -0.000878907 0.0129614)
(-8.93665e-05 -0.000878907 0.0129614)
(-0.000265103 -0.000862434 0.0129645)
(-0.000427998 -0.000826936 0.0129422)
(-0.000566113 -0.000765389 0.0128288)
(-0.000674003 -0.000674003 0.0125251)
(0.000381164 0.000381164 0.0127558)
(0.000332423 0.000463253 0.0132635)
(0.000262921 0.000523089 0.0135257)
(0.000166897 0.000562075 0.01364)
(5.69816e-05 0.000580751 0.0136794)
(-5.69816e-05 0.000580751 0.0136794)
(-0.000166897 0.000562075 0.01364)
(-0.000262921 0.000523089 0.0135257)
(-0.000332423 0.000463253 0.0132635)
(-0.000381164 0.000381164 0.0127558)
(0.000463253 0.000332423 0.0132635)
(0.000406666 0.000406666 0.0136266)
(0.000313823 0.00045662 0.0137292)
(0.000196643 0.000486108 0.0137279)
(6.676e-05 0.000499646 0.0137088)
(-6.676e-05 0.000499646 0.0137088)
(-0.000196643 0.000486108 0.0137279)
(-0.000313823 0.00045662 0.0137292)
(-0.000406666 0.000406666 0.0136266)
(-0.000463253 0.000332423 0.0132635)
(0.000523089 0.000262921 0.0135257)
(0.00045662 0.000313823 0.0137292)
(0.00034746 0.00034746 0.0137005)
(0.000215551 0.000366496 0.0136148)
(7.28624e-05 0.000374973 0.0135561)
(-7.28623e-05 0.000374973 0.0135561)
(-0.000215551 0.000366496 0.0136148)
(-0.00034746 0.00034746 0.0137005)
(-0.00045662 0.000313823 0.0137292)
(-0.000523089 0.000262921 0.0135257)
(0.000562075 0.000166897 0.01364)
(0.000486108 0.000196643 0.0137279)
(0.000366496 0.000215551 0.0136148)
(0.000226007 0.000226007 0.0134804)
(7.62029e-05 0.000230586 0.0134006)
(-7.62029e-05 0.000230586 0.0134006)
(-0.000226007 0.000226007 0.0134804)
(-0.000366496 0.000215551 0.0136148)
(-0.000486108 0.000196643 0.0137279)
(-0.000562075 0.000166897 0.01364)
(0.000580751 5.69816e-05 0.0136794)
(0.000499646 6.676e-05 0.0137088)
(0.000374973 7.28623e-05 0.0135561)
(0.000230586 7.62029e-05 0.0134006)
(7.7654e-05 7.7654e-05 0.0133123)
(-7.7654e-05 7.7654e-05 0.0133123)
(-0.000230586 7.62029e-05 0.0134006)
(-0.000374973 7.28623e-05 0.0135561)
(-0.000499646 6.676e-05 0.0137088)
(-0.000580751 5.69816e-05 0.0136794)
(0.000580751 -5.69816e-05 0.0136794)
(0.000499646 -6.676e-05 0.0137088)
(0.000374973 -7.28623e-05 0.0135561)
(0.000230586 -7.62029e-05 0.0134006)
(7.7654e-05 -7.7654e-05 0.0133123)
(-7.7654e-05 -7.7654e-05 0.0133123)
(-0.000230586 -7.62029e-05 0.0134006)
(-0.000374973 -7.28624e-05 0.0135561)
(-0.000499646 -6.676e-05 0.0137088)
(-0.000580751 -5.69816e-05 0.0136794)
(0.000562075 -0.000166897 0.01364)
(0.000486108 -0.000196643 0.0137279)
(0.000366496 -0.000215551 0.0136148)
(0.000226007 -0.000226007 0.0134804)
(7.62029e-05 -0.000230586 0.0134006)
(-7.62029e-05 -0.000230586 0.0134006)
(-0.000226007 -0.000226007 0.0134804)
(-0.000366496 -0.000215551 0.0136148)
(-0.000486108 -0.000196643 0.0137279)
(-0.000562075 -0.000166897 0.01364)
(0.000523089 -0.000262921 0.0135257)
(0.00045662 -0.000313823 0.0137292)
(0.00034746 -0.00034746 0.0137005)
(0.000215551 -0.000366496 0.0136148)
(7.28623e-05 -0.000374973 0.0135561)
(-7.28624e-05 -0.000374973 0.0135561)
(-0.000215551 -0.000366496 0.0136148)
(-0.00034746 -0.00034746 0.0137005)
(-0.00045662 -0.000313823 0.0137292)
(-0.000523089 -0.000262921 0.0135257)
(0.000463253 -0.000332423 0.0132635)
(0.000406666 -0.000406666 0.0136266)
(0.000313823 -0.00045662 0.0137292)
(0.000196643 -0.000486108 0.0137279)
(6.676e-05 -0.000499646 0.0137088)
(-6.676e-05 -0.000499646 0.0137088)
(-0.000196643 -0.000486108 0.0137279)
(-0.000313823 -0.00045662 0.0137292)
(-0.000406666 -0.000406666 0.0136266)
(-0.000463253 -0.000332423 0.0132635)
(0.000381164 -0.000381164 0.0127558)
(0.000332423 -0.000463253 0.0132635)
(0.000262921 -0.000523089 0.0135257)
(0.000166897 -0.000562075 0.01364)
(5.69816e-05 -0.000580751 0.0136794)
(-5.69816e-05 -0.000580751 0.0136794)
(-0.000166897 -0.000562075 0.01364)
(-0.000262921 -0.000523089 0.0135257)
(-0.000332423 -0.000463253 0.0132635)
(-0.000381164 -0.000381164 0.0127558)
(0.000221529 0.000221529 0.0126437)
(0.000196898 0.00027508 0.0132943)
(0.000160287 0.000317718 0.0136717)
(0.00010342 0.000347147 0.0138636)
(3.56153e-05 0.000361644 0.0139414)
(-3.56153e-05 0.000361644 0.0139414)
(-0.00010342 0.000347147 0.0138636)
(-0.000160287 0.000317718 0.0136717)
(-0.000196898 0.00027508 0.0132943)
(-0.000221529 0.000221529 0.0126437)
(0.00027508 0.000196898 0.0132943)
(0.000250586 0.000250586 0.0138416)
(0.00019963 0.000290113 0.014074)
(0.000127616 0.000315522 0.0141523)
(4.37581e-05 0.000327783 0.0141702)
(-4.37581e-05 0.000327783 0.0141702)
(-0.000127616 0.000315522 0.0141523)
(-0.00019963 0.000290113 0.014074)
(-0.000250586 0.000250586 0.0138416)
(-0.00027508 0.000196898 0.0132943)
(0.000317718 0.000160287 0.0136717)
(0.000290113 0.00019963 0.014074)
(0.000228653 0.000228653 0.0141728)
(0.000145087 0.000246872 0.0141591)
(4.95899e-05 0.000255545 0.0141324)
(-4.95898e-05 0.000255545 0.0141324)
(-0.000145087 0.000246872 0.0141591)
(-0.000228653 0.000228653 0.0141728)
(-0.000290113 0.00019963 0.014074)
(-0.000317718 0.000160287 0.0136717)
(0.000347147 0.00010342 0.0138636)
(0.000315522 0.000127616 0.0141523)
(0.000246872 0.000145087 0.0141591)
(0.000155917 0.000155917 0.0140886)
(5.31864e-05 0.00016103 0.0140362)
(-5.31864e-05 0.00016103 0.0140362)
(-0.000155917 0.000155917 0.0140886)
(-0.000246872 0.000145087 0.0141591)
(-0.000315522 0.000127616 0.0141523)
(-0.000347147 0.00010342 0.0138636)
(0.000361644 3.56153e-05 0.0139414)
(0.000327783 4.37581e-05 0.0141702)
(0.000255545 4.95899e-05 0.0141324)
(0.00016103 5.31864e-05 0.0140362)
(5.48789e-05 5.48789e-05 0.0139729)
(-5.48789e-05 5.48789e-05 0.0139729)
(-0.00016103 5.31864e-05 0.0140362)
(-0.000255545 4.95899e-05 0.0141324)
(-0.000327783 4.37581e-05 0.0141702)
(-0.000361644 3.56153e-05 0.0139414)
(0.000361644 -3.56153e-05 0.0139414)
(0.000327783 -4.37581e-05 0.0141702)
(0.000255545 -4.95898e-05 0.0141324)
(0.00016103 -5.31864e-05 0.0140362)
(5.48789e-05 -5.48789e-05 0.0139729)
(-5.48789e-05 -5.48789e-05 0.0139729)
(-0.00016103 -5.31864e-05 0.0140362)
(-0.000255545 -4.95899e-05 0.0141324)
(-0.000327783 -4.37581e-05 0.0141702)
(-0.000361644 -3.56153e-05 0.0139414)
(0.000347147 -0.00010342 0.0138636)
(0.000315522 -0.000127616 0.0141523)
(0.000246872 -0.000145087 0.0141591)
(0.000155917 -0.000155917 0.0140886)
(5.31864e-05 -0.00016103 0.0140362)
(-5.31864e-05 -0.00016103 0.0140362)
(-0.000155917 -0.000155917 0.0140886)
(-0.000246872 -0.000145087 0.0141591)
(-0.000315522 -0.000127616 0.0141523)
(-0.000347147 -0.00010342 0.0138636)
(0.000317718 -0.000160287 0.0136717)
(0.000290113 -0.00019963 0.014074)
(0.000228653 -0.000228653 0.0141728)
(0.000145087 -0.000246872 0.0141591)
(4.95899e-05 -0.000255545 0.0141324)
(-4.95899e-05 -0.000255545 0.0141324)
(-0.000145087 -0.000246872 0.0141591)
(-0.000228653 -0.000228653 0.0141728)
(-0.000290113 -0.00019963 0.014074)
(-0.000317718 -0.000160287 0.0136717)
(0.00027508 -0.000196898 0.0132943)
(0.000250586 -0.000250586 0.0138416)
(0.00019963 -0.000290113 0.014074)
(0.000127616 -0.000315522 0.0141523)
(4.37581e-05 -0.000327783 0.0141702)
(-4.37581e-05 -0.000327783 0.0141702)
(-0.000127616 -0.000315522 0.0141523)
(-0.00019963 -0.000290113 0.014074)
(-0.000250586 -0.000250586 0.0138416)
(-0.00027508 -0.000196898 0.0132943)
(0.000221529 -0.000221529 0.0126437)
(0.000196898 -0.00027508 0.0132943)
(0.000160287 -0.000317718 0.0136717)
(0.00010342 -0.000347147 0.0138636)
(3.56153e-05 -0.000361644 0.0139414)
(-3.56153e-05 -0.000361644 0.0139414)
(-0.00010342 -0.000347147 0.0138636)
(-0.000160287 -0.000317718 0.0136717)
(-0.000196898 -0.00027508 0.0132943)
(-0.000221529 -0.000221529 0.0126437)
(0.000106346 0.000106346 0.0125579)
(9.78603e-05 0.000137791 0.0132699)
(8.28964e-05 0.0001647 0.0137044)
(5.47042e-05 0.000184329 0.0139385)
(1.90631e-05 0.000194293 0.0140383)
(-1.90631e-05 0.000194293 0.0140383)
(-5.47042e-05 0.000184329 0.0139385)
(-8.28964e-05 0.0001647 0.0137044)
(-9.78603e-05 0.000137791 0.0132699)
(-0.000106346 0.000106346 0.0125579)
(0.000137791 9.78603e-05 0.0132699)
(0.000132171 0.000132171 0.0139141)
(0.000109907 0.00015978 0.0142248)
(7.21719e-05 0.000178924 0.0143563)
(2.50804e-05 0.000188581 0.0144009)
(-2.50804e-05 0.000188581 0.0144009)
(-7.21719e-05 0.000178924 0.0143563)
(-0.000109907 0.00015978 0.0142248)
(-0.000132171 0.000132171 0.0139141)
(-0.000137791 9.78603e-05 0.0132699)
(0.0001647 8.28964e-05 0.0137044)
(0.00015978 0.000109907 0.0142248)
(0.00013194 0.00013194 0.0144126)
(8.62341e-05 0.000146975 0.0144562)
(2.99038e-05 0.0001545 0.0144571)
(-2.99038e-05 0.0001545 0.0144571)
(-8.62341e-05 0.000146975 0.0144562)
(-0.00013194 0.00013194 0.0144126)
(-0.00015978 0.000109907 0.0142248)
(-0.0001647 8.28964e-05 0.0137044)
(0.000184329 5.47042e-05 0.0139385)
(0.000178924 7.21719e-05 0.0143563)
(0.000146975 8.62341e-05 0.0144562)
(9.57338e-05 9.57338e-05 0.0144436)
(3.31487e-05 0.000100458 0.0144187)
(-3.31487e-05 0.000100458 0.0144187)
(-9.57338e-05 9.57338e-05 0.0144436)
(-0.000146975 8.62341e-05 0.0144562)
(-0.000178924 7.21719e-05 0.0143563)
(-0.000184329 5.47042e-05 0.0139385)
(0.000194293 1.90631e-05 0.0140383)
(0.000188581 2.50804e-05 0.0144009)
(0.0001545 2.99038e-05 0.0144571)
(0.000100458 3.31487e-05 0.0144187)
(3.47576e-05 3.47576e-05 0.0143827)
(-3.47576e-05 3.47576e-05 0.0143827)
(-0.000100458 3.31487e-05 0.0144187)
(-0.0001545 2.99038e-05 0.0144571)
(-0.000188581 2.50804e-05 0.0144009)
(-0.000194293 1.90631e-05 0.0140383)
(0.000194293 -1.90631e-05 0.0140383)
(0.000188581 -2.50804e-05 0.0144009)
(0.0001545 -2.99038e-05 0.0144571)
(0.000100458 -3.31487e-05 0.0144187)
(3.47576e-05 -3.47576e-05 0.0143827)
(-3.47576e-05 -3.47576e-05 0.0143827)
(-0.000100458 -3.31487e-05 0.0144187)
(-0.0001545 -2.99038e-05 0.0144571)
(-0.000188581 -2.50804e-05 0.0144009)
(-0.000194293 -1.90631e-05 0.0140383)
(0.000184329 -5.47042e-05 0.0139385)
(0.000178924 -7.21719e-05 0.0143563)
(0.000146975 -8.62341e-05 0.0144562)
(9.57338e-05 -9.57338e-05 0.0144436)
(3.31487e-05 -0.000100458 0.0144187)
(-3.31487e-05 -0.000100458 0.0144187)
(-9.57338e-05 -9.57338e-05 0.0144436)
(-0.000146975 -8.62341e-05 0.0144562)
(-0.000178924 -7.21719e-05 0.0143563)
(-0.000184329 -5.47042e-05 0.0139385)
(0.0001647 -8.28964e-05 0.0137044)
(0.00015978 -0.000109907 0.0142248)
(0.00013194 -0.00013194 0.0144126)
(8.62341e-05 -0.000146975 0.0144562)
(2.99038e-05 -0.0001545 0.0144571)
(-2.99038e-05 -0.0001545 0.0144571)
(-8.62341e-05 -0.000146975 0.0144562)
(-0.00013194 -0.00013194 0.0144126)
(-0.00015978 -0.000109907 0.0142248)
(-0.0001647 -8.28964e-05 0.0137044)
(0.000137791 -9.78603e-05 0.0132699)
(0.000132171 -0.000132171 0.0139141)
(0.000109907 -0.00015978 0.0142248)
(7.21719e-05 -0.000178924 0.0143563)
(2.50804e-05 -0.000188581 0.0144009)
(-2.50804e-05 -0.000188581 0.0144009)
(-7.21719e-05 -0.000178924 0.0143563)
(-0.000109907 -0.00015978 0.0142248)
(-0.000132171 -0.000132171 0.0139141)
(-0.000137791 -9.78603e-05 0.0132699)
(0.000106346 -0.000106346 0.0125579)
(9.78603e-05 -0.000137791 0.0132699)
(8.28964e-05 -0.0001647 0.0137044)
(5.47042e-05 -0.000184329 0.0139385)
(1.90631e-05 -0.000194293 0.0140383)
(-1.90631e-05 -0.000194293 0.0140383)
(-5.47042e-05 -0.000184329 0.0139385)
(-8.28964e-05 -0.0001647 0.0137044)
(-9.78603e-05 -0.000137791 0.0132699)
(-0.000106346 -0.000106346 0.0125579)
(4.44703e-05 4.44703e-05 0.0125014)
(4.24431e-05 5.99314e-05 0.0132379)
(3.74368e-05 7.41837e-05 0.0136989)
(2.52717e-05 8.51357e-05 0.0139543)
(8.91799e-06 9.08609e-05 0.0140658)
(-8.91798e-06 9.08609e-05 0.0140658)
(-2.52717e-05 8.51357e-05 0.0139543)
(-3.74368e-05 7.41837e-05 0.0136989)
(-4.24431e-05 5.99314e-05 0.0132379)
(-4.44703e-05 4.44703e-05 0.0125014)
(5.99314e-05 4.24431e-05 0.0132379)
(6.0882e-05 6.0882e-05 0.0139289)
(5.30348e-05 7.70269e-05 0.014283)
(3.58306e-05 8.89743e-05 0.0144472)
(1.26319e-05 9.52279e-05 0.0145091)
(-1.26319e-05 9.52279e-05 0.0145091)
(-3.58306e-05 8.89743e-05 0.0144472)
(-5.30348e-05 7.70269e-05 0.014283)
(-6.0882e-05 6.0882e-05 0.0139289)
(-5.99314e-05 4.24431e-05 0.0132379)
(7.41837e-05 3.74368e-05 0.0136989)
(7.70269e-05 5.30348e-05 0.014283)
(6.6924e-05 6.6924e-05 0.0145269)
(4.51341e-05 7.70548e-05 0.0146107)
(1.58927e-05 8.23179e-05 0.0146324)
(-1.58926e-05 8.23179e-05 0.0146324)
(-4.51341e-05 7.70548e-05 0.0146107)
(-6.6924e-05 6.6924e-05 0.0145269)
(-7.70269e-05 5.30348e-05 0.014283)
(-7.41837e-05 3.74368e-05 0.0136989)
(8.51357e-05 2.52717e-05 0.0139543)
(8.89743e-05 3.58306e-05 0.0144472)
(7.70548e-05 4.51341e-05 0.0146107)
(5.18479e-05 5.18479e-05 0.0146425)
(1.82342e-05 5.53111e-05 0.01464)
(-1.82342e-05 5.53111e-05 0.01464)
(-5.18479e-05 5.18479e-05 0.0146425)
(-7.70548e-05 4.51341e-05 0.0146107)
(-8.89743e-05 3.58306e-05 0.0144472)
(-8.51357e-05 2.52717e-05 0.0139543)
(9.08609e-05 8.91798e-06 0.0140658)
(9.52279e-05 1.26319e-05 0.0145091)
(8.23179e-05 1.58926e-05 0.0146324)
(5.53111e-05 1.82342e-05 0.01464)
(1.94377e-05 1.94377e-05 0.014627)
(-1.94377e-05 1.94377e-05 0.014627)
(-5.53111e-05 1.82342e-05 0.01464)
(-8.23179e-05 1.58926e-05 0.0146324)
(-9.52279e-05 1.26319e-05 0.0145091)
(-9.08609e-05 8.91798e-06 0.0140658)
(9.08609e-05 -8.91798e-06 0.0140658)
(9.52279e-05 -1.26319e-05 0.0145091)
(8.23179e-05 -1.58926e-05 0.0146324)
(5.53111e-05 -1.82342e-05 0.01464)
(1.94377e-05 -1.94377e-05 0.014627)
(-1.94377e-05 -1.94377e-05 0.014627)
(-5.53111e-05 -1.82342e-05 0.01464)
(-8.23179e-05 -1.58926e-05 0.0146324)
(-9.52279e-05 -1.26319e-05 0.0145091)
(-9.08609e-05 -8.91798e-06 0.0140658)
(8.51357e-05 -2.52717e-05 0.0139543)
(8.89743e-05 -3.58306e-05 0.0144472)
(7.70548e-05 -4.51341e-05 0.0146107)
(5.18479e-05 -5.18479e-05 0.0146425)
(1.82343e-05 -5.53111e-05 0.01464)
(-1.82342e-05 -5.53111e-05 0.01464)
(-5.18479e-05 -5.18479e-05 0.0146425)
(-7.70548e-05 -4.51341e-05 0.0146107)
(-8.89743e-05 -3.58306e-05 0.0144472)
(-8.51357e-05 -2.52717e-05 0.0139543)
(7.41837e-05 -3.74368e-05 0.0136989)
(7.70269e-05 -5.30348e-05 0.014283)
(6.6924e-05 -6.6924e-05 0.0145269)
(4.51341e-05 -7.70548e-05 0.0146107)
(1.58926e-05 -8.23179e-05 0.0146324)
(-1.58926e-05 -8.23179e-05 0.0146324)
(-4.51341e-05 -7.70548e-05 0.0146107)
(-6.6924e-05 -6.6924e-05 0.0145269)
(-7.70269e-05 -5.30347e-05 0.014283)
(-7.41837e-05 -3.74368e-05 0.0136989)
(5.99314e-05 -4.24431e-05 0.0132379)
(6.0882e-05 -6.0882e-05 0.0139289)
(5.30348e-05 -7.70269e-05 0.014283)
(3.58306e-05 -8.89743e-05 0.0144472)
(1.26319e-05 -9.52279e-05 0.0145091)
(-1.26319e-05 -9.52279e-05 0.0145091)
(-3.58306e-05 -8.89743e-05 0.0144472)
(-5.30347e-05 -7.70269e-05 0.014283)
(-6.0882e-05 -6.0882e-05 0.0139289)
(-5.99314e-05 -4.24431e-05 0.0132379)
(4.44703e-05 -4.44703e-05 0.0125014)
(4.24431e-05 -5.99314e-05 0.0132379)
(3.74368e-05 -7.41837e-05 0.0136989)
(2.52717e-05 -8.51357e-05 0.0139543)
(8.91798e-06 -9.08609e-05 0.0140658)
(-8.91798e-06 -9.08609e-05 0.0140658)
(-2.52717e-05 -8.51357e-05 0.0139543)
(-3.74368e-05 -7.41837e-05 0.0136989)
(-4.24431e-05 -5.99314e-05 0.0132379)
(-4.44703e-05 -4.44703e-05 0.0125014)
(1.6285e-05 1.6285e-05 0.0124687)
(1.63402e-05 2.30471e-05 0.013212)
(1.51341e-05 2.97113e-05 0.0136827)
(1.04969e-05 3.50726e-05 0.0139472)
(3.76002e-06 3.79538e-05 0.0140641)
(-3.76001e-06 3.79538e-05 0.0140641)
(-1.04969e-05 3.50726e-05 0.0139472)
(-1.51341e-05 2.97113e-05 0.0136827)
(-1.63402e-05 2.30471e-05 0.013212)
(-1.6285e-05 1.6285e-05 0.0124687)
(2.30471e-05 1.63402e-05 0.013212)
(2.51183e-05 2.51183e-05 0.0139215)
(2.30662e-05 3.33938e-05 0.0142962)
(1.60789e-05 3.98488e-05 0.0144776)
(5.75817e-06 4.33284e-05 0.0145491)
(-5.75816e-06 4.33284e-05 0.0145491)
(-1.60789e-05 3.98488e-05 0.0144776)
(-2.30662e-05 3.33938e-05 0.0142962)
(-2.51183e-05 2.51183e-05 0.0139215)
(-2.30471e-05 1.63402e-05 0.013212)
(2.97113e-05 1.51341e-05 0.0136827)
(3.33938e-05 2.30662e-05 0.0142962)
(3.06549e-05 3.06549e-05 0.0145704)
(2.13603e-05 3.64815e-05 0.0146782)
(7.64053e-06 3.95942e-05 0.0147128)
(-7.64052e-06 3.95942e-05 0.0147128)
(-2.13603e-05 3.64815e-05 0.0146782)
(-3.06549e-05 3.06549e-05 0.0145704)
(-3.33938e-05 2.30662e-05 0.0142962)
(-2.97113e-05 1.51341e-05 0.0136827)
(3.50726e-05 1.04969e-05 0.0139472)
(3.98488e-05 1.60789e-05 0.0144776)
(3.64815e-05 2.13603e-05 0.0146782)
(2.53656e-05 2.53656e-05 0.0147382)
(9.05952e-06 2.74871e-05 0.0147508)
(-9.05951e-06 2.74871e-05 0.0147508)
(-2.53656e-05 2.53656e-05 0.0147382)
(-3.64815e-05 2.13603e-05 0.0146782)
(-3.98487e-05 1.60789e-05 0.0144776)
(-3.50726e-05 1.04969e-05 0.0139472)
(3.79538e-05 3.76001e-06 0.0140641)
(4.33284e-05 5.75817e-06 0.0145491)
(3.95942e-05 7.64053e-06 0.0147128)
(2.74871e-05 9.05952e-06 0.0147508)
(9.80778e-06 9.80778e-06 0.0147537)
(-9.80777e-06 9.80778e-06 0.0147537)
(-2.74871e-05 9.05952e-06 0.0147508)
(-3.95942e-05 7.64053e-06 0.0147128)
(-4.33284e-05 5.75817e-06 0.0145491)
(-3.79537e-05 3.76001e-06 0.0140641)
(3.79538e-05 -3.76001e-06 0.0140641)
(4.33284e-05 -5.75817e-06 0.0145491)
(3.95942e-05 -7.64052e-06 0.0147128)
(2.74871e-05 -9.05951e-06 0.0147508)
(9.80778e-06 -9.80777e-06 0.0147537)
(-9.80777e-06 -9.80777e-06 0.0147537)
(-2.74871e-05 -9.05951e-06 0.0147508)
(-3.95942e-05 -7.64052e-06 0.0147128)
(-4.33284e-05 -5.75817e-06 0.0145491)
(-3.79537e-05 -3.76001e-06 0.0140641)
(3.50726e-05 -1.04969e-05 0.0139472)
(3.98488e-05 -1.60789e-05 0.0144776)
(3.64815e-05 -2.13603e-05 0.0146782)
(2.53656e-05 -2.53656e-05 0.0147382)
(9.05952e-06 -2.74871e-05 0.0147508)
(-9.05951e-06 -2.74871e-05 0.0147508)
(-2.53656e-05 -2.53656e-05 0.0147382)
(-3.64815e-05 -2.13603e-05 0.0146782)
(-3.98487e-05 -1.60789e-05 0.0144776)
(-3.50726e-05 -1.04969e-05 0.0139472)
(2.97113e-05 -1.51341e-05 0.0136827)
(3.33938e-05 -2.30662e-05 0.0142962)
(3.06549e-05 -3.06549e-05 0.0145704)
(2.13603e-05 -3.64815e-05 0.0146782)
(7.64053e-06 -3.95942e-05 0.0147128)
(-7.64052e-06 -3.95942e-05 0.0147128)
(-2.13603e-05 -3.64815e-05 0.0146782)
(-3.06549e-05 -3.06549e-05 0.0145704)
(-3.33938e-05 -2.30662e-05 0.0142962)
(-2.97113e-05 -1.51341e-05 0.0136827)
(2.30471e-05 -1.63403e-05 0.013212)
(2.51183e-05 -2.51183e-05 0.0139215)
(2.30662e-05 -3.33938e-05 0.0142962)
(1.60789e-05 -3.98488e-05 0.0144776)
(5.75817e-06 -4.33284e-05 0.0145491)
(-5.75817e-06 -4.33284e-05 0.0145491)
(-1.60789e-05 -3.98488e-05 0.0144776)
(-2.30662e-05 -3.33938e-05 0.0142962)
(-2.51183e-05 -2.51183e-05 0.0139215)
(-2.30471e-05 -1.63402e-05 0.013212)
(1.6285e-05 -1.6285e-05 0.0124687)
(1.63402e-05 -2.30471e-05 0.013212)
(1.51341e-05 -2.97113e-05 0.0136827)
(1.04969e-05 -3.50726e-05 0.0139472)