/*--------------------------------*- C++ -*----------------------------------*\
| =========                 |                                                 |
| \\      /  F ield         | OpenFOAM: The Open Source CFD Toolbox           |
|  \\    /   O peration     | Version:  2412                                  |
|   \\  /    A nd           | Website:  www.openfoam.com                      |
|    \\/     M anipulation  |                                                 |
\*---------------------------------------------------------------------------*/
FoamFile
{
    version     2.0;
    format      ascii;
    arch        "LSB;label=32;scalar=64";
    class       surfaceScalarField;
    location    "9.1";
    object      phi;
}
// * * * * * * * * * * * * * * * * * * * * * * * * * * * * * * * * * * * * * //

dimensions      [0 3 -1 0 0 0 0];

oriented        oriented;

internalField   nonuniform List<scalar> 
43700
(
1.83226e-07
1.83226e-07
5.49946e-07
-2.2319e-07
-2.2319e-07
1.35385e-07
1.622e-07
5.93577e-07
-1.98552e-07
8.96193e-08
1.48705e-07
6.2451e-07
-1.8802e-07
4.44629e-08
1.39762e-07
6.44374e-07
-1.79267e-07
1.14434e-16
1.3548e-07
6.54146e-07
-1.75234e-07
-4.44629e-08
1.3548e-07
6.54146e-07
-1.75234e-07
-8.96193e-08
1.39762e-07
6.44374e-07
-1.79267e-07
-1.35385e-07
1.48705e-07
6.2451e-07
-1.8802e-07
-1.83226e-07
1.622e-07
5.93577e-07
-1.98552e-07
1.83226e-07
5.49946e-07
-2.2319e-07
-2.2319e-07
1.622e-07
1.35385e-07
5.93577e-07
-1.98552e-07
1.20549e-07
1.20549e-07
6.29146e-07
7.94373e-08
1.09409e-07
6.54098e-07
3.93531e-08
1.02037e-07
6.70305e-07
1.18115e-16
9.84518e-08
6.78354e-07
-3.93531e-08
9.84518e-08
6.78354e-07
-7.94373e-08
1.02037e-07
6.70305e-07
-1.20549e-07
1.09409e-07
6.54098e-07
-1.622e-07
1.20549e-07
6.29146e-07
1.35385e-07
5.93577e-07
-1.98552e-07
1.48705e-07
8.96193e-08
6.2451e-07
-1.8802e-07
1.09409e-07
7.94373e-08
6.54098e-07
7.17243e-08
7.17243e-08
6.75244e-07
3.54614e-08
6.66133e-08
6.89249e-07
1.33616e-16
6.41112e-08
6.9628e-07
-3.54614e-08
6.41112e-08
6.9628e-07
-7.17243e-08
6.66133e-08
6.89249e-07
-1.09409e-07
7.17243e-08
6.75244e-07
-1.48705e-07
7.94373e-08
6.54098e-07
8.96193e-08
6.2451e-07
-1.8802e-07
1.39762e-07
4.44629e-08
6.44374e-07
-1.79267e-07
1.02037e-07
3.93531e-08
6.70305e-07
6.66133e-08
3.54614e-08
6.89249e-07
3.28691e-08
3.28691e-08
7.01991e-07
4.00173e-17
3.1594e-08
7.08428e-07
-3.28691e-08
3.1594e-08
7.08428e-07
-6.66133e-08
3.28691e-08
7.01991e-07
-1.02037e-07
3.54614e-08
6.89249e-07
-1.39762e-07
3.93531e-08
6.70305e-07
4.44629e-08
6.44374e-07
-1.79267e-07
1.3548e-07
-2.14395e-16
6.54146e-07
-1.75234e-07
9.84518e-08
-2.09291e-16
6.78354e-07
6.41112e-08
-1.26743e-16
6.9628e-07
3.1594e-08
-1.73179e-16
7.08428e-07
1.0777e-17
-2.15591e-16
7.1458e-07
-3.1594e-08
-1.28938e-16
7.1458e-07
-6.41112e-08
-1.24251e-16
7.08428e-07
-9.84518e-08
-1.69809e-16
6.9628e-07
-1.3548e-07
-1.70392e-16
6.78354e-07
-1.10693e-16
6.54146e-07
-1.75234e-07
1.3548e-07
-4.44629e-08
6.54146e-07
-1.75234e-07
9.84518e-08
-3.93531e-08
6.78354e-07
6.41112e-08
-3.54614e-08
6.9628e-07
3.1594e-08
-3.28691e-08
7.08428e-07
6.66813e-17
-3.1594e-08
7.1458e-07
-3.1594e-08
-3.1594e-08
7.1458e-07
-6.41112e-08
-3.28691e-08
7.08428e-07
-9.84518e-08
-3.54614e-08
6.9628e-07
-1.3548e-07
-3.93531e-08
6.78354e-07
-4.44629e-08
6.54146e-07
-1.75234e-07
1.39762e-07
-8.96193e-08
6.44374e-07
-1.79267e-07
1.02037e-07
-7.94373e-08
6.70305e-07
6.66133e-08
-7.17243e-08
6.89249e-07
3.28691e-08
-6.66133e-08
7.01991e-07
4.50985e-17
-6.41112e-08
7.08428e-07
-3.28691e-08
-6.41112e-08
7.08428e-07
-6.66133e-08
-6.66133e-08
7.01991e-07
-1.02037e-07
-7.17243e-08
6.89249e-07
-1.39762e-07
-7.94373e-08
6.70305e-07
-8.96193e-08
6.44374e-07
-1.79267e-07
1.48705e-07
-1.35385e-07
6.2451e-07
-1.8802e-07
1.09409e-07
-1.20549e-07
6.54098e-07
7.17243e-08
-1.09409e-07
6.75244e-07
3.54614e-08
-1.02037e-07
6.89249e-07
-1.16343e-16
-9.84518e-08
6.9628e-07
-3.54614e-08
-9.84518e-08
6.9628e-07
-7.17243e-08
-1.02037e-07
6.89249e-07
-1.09409e-07
-1.09409e-07
6.75244e-07
-1.48705e-07
-1.20549e-07
6.54098e-07
-1.35385e-07
6.2451e-07
-1.8802e-07
1.622e-07
-1.83226e-07
5.93577e-07
-1.98552e-07
1.20549e-07
-1.622e-07
6.29146e-07
7.94373e-08
-1.48705e-07
6.54098e-07
3.93531e-08
-1.39762e-07
6.70305e-07
-1.02346e-16
-1.3548e-07
6.78354e-07
-3.93531e-08
-1.3548e-07
6.78354e-07
-7.94373e-08
-1.39762e-07
6.70305e-07
-1.20549e-07
-1.48705e-07
6.54098e-07
-1.622e-07
-1.622e-07
6.29146e-07
-1.83226e-07
5.93577e-07
-1.98552e-07
1.83226e-07
5.49946e-07
-2.2319e-07
-2.2319e-07
1.35385e-07
5.93577e-07
-1.98552e-07
8.96193e-08
6.2451e-07
-1.8802e-07
4.44629e-08
6.44374e-07
-1.79267e-07
9.88292e-17
6.54146e-07
-1.75234e-07
-4.44629e-08
6.54146e-07
-1.75234e-07
-8.96193e-08
6.44374e-07
-1.79267e-07
-1.35385e-07
6.2451e-07
-1.8802e-07
-1.83226e-07
5.93577e-07
-1.98552e-07
5.49946e-07
-2.2319e-07
-2.2319e-07
1.32246e-07
1.32246e-07
5.86948e-07
-1.50747e-07
-1.50747e-07
1.04282e-07
1.29991e-07
6.43127e-07
-1.51578e-07
7.13191e-08
1.26345e-07
6.81738e-07
-1.5061e-07
3.60239e-08
1.22793e-07
7.0559e-07
-1.48714e-07
3.07154e-17
1.209e-07
7.16988e-07
-1.47719e-07
-3.60239e-08
1.209e-07
7.16988e-07
-1.47719e-07
-7.13191e-08
1.22793e-07
7.0559e-07
-1.48714e-07
-1.04282e-07
1.26345e-07
6.81738e-07
-1.5061e-07
-1.32246e-07
1.29991e-07
6.43127e-07
-1.51578e-07
1.32246e-07
5.86948e-07
-1.50747e-07
-1.50747e-07
1.29992e-07
1.04282e-07
6.43127e-07
-1.51578e-07
1.00291e-07
1.00291e-07
6.88548e-07
6.74935e-08
9.56661e-08
7.17574e-07
3.37745e-08
9.18578e-08
7.3496e-07
9.31582e-17
8.98553e-08
7.43173e-07
-3.37745e-08
8.98553e-08
7.43173e-07
-6.74935e-08
9.18578e-08
7.3496e-07
-1.00291e-07
9.56661e-08
7.17574e-07
-1.29991e-07
1.00291e-07
6.88548e-07
1.04282e-07
6.43127e-07
-1.51578e-07
1.26345e-07
7.13191e-08
6.81738e-07
-1.5061e-07
9.56661e-08
6.74935e-08
7.17574e-07
6.35262e-08
6.35262e-08
7.39523e-07
3.15646e-08
6.05005e-08
7.52569e-07
1.20745e-16
5.89382e-08
7.58762e-07
-3.15646e-08
5.89382e-08
7.58762e-07
-6.35262e-08
6.05005e-08
7.52569e-07
-9.56661e-08
6.35262e-08
7.39523e-07
-1.26345e-07
6.74935e-08
7.17574e-07
7.13191e-08
6.81738e-07
-1.5061e-07
1.22793e-07
3.60239e-08
7.0559e-07
-1.48714e-07
9.18578e-08
3.37745e-08
7.3496e-07
6.05005e-08
3.15646e-08
7.52569e-07
2.99344e-08
2.99344e-08
7.63123e-07
-3.3057e-17
2.91013e-08
7.682e-07
-2.99344e-08
2.91013e-08
7.682e-07
-6.05005e-08
2.99344e-08
7.63123e-07
-9.18578e-08
3.15646e-08
7.52569e-07
-1.22793e-07
3.37745e-08
7.3496e-07
3.60239e-08
7.0559e-07
-1.48714e-07
1.209e-07
-4.07925e-16
7.16988e-07
-1.47719e-07
8.98553e-08
-3.45822e-16
7.43173e-07
5.89382e-08
-1.7883e-16
7.58762e-07
2.91013e-08
-2.53409e-16
7.682e-07
-1.42132e-16
-3.85692e-16
7.72783e-07
-2.91013e-08
-3.41514e-16
7.72783e-07
-5.89382e-08
-3.15955e-16
7.682e-07
-8.98553e-08
-1.96782e-16
7.58762e-07
-1.209e-07
-1.12987e-16
7.43173e-07
-9.74214e-17
7.16988e-07
-1.47719e-07
1.209e-07
-3.60239e-08
7.16988e-07
-1.47719e-07
8.98553e-08
-3.37745e-08
7.43173e-07
5.89382e-08
-3.15646e-08
7.58762e-07
2.91013e-08
-2.99344e-08
7.682e-07
-7.38589e-17
-2.91013e-08
7.72783e-07
-2.91013e-08
-2.91013e-08
7.72783e-07
-5.89382e-08
-2.99344e-08
7.682e-07
-8.98553e-08
-3.15646e-08
7.58762e-07
-1.209e-07
-3.37745e-08
7.43173e-07
-3.60239e-08
7.16988e-07
-1.47719e-07
1.22793e-07
-7.13191e-08
7.0559e-07
-1.48714e-07
9.18578e-08
-6.74935e-08
7.3496e-07
6.05005e-08
-6.35262e-08
7.52569e-07
2.99344e-08
-6.05005e-08
7.63123e-07
-1.26646e-16
-5.89382e-08
7.682e-07
-2.99344e-08
-5.89382e-08
7.682e-07
-6.05005e-08
-6.05005e-08
7.63123e-07
-9.18578e-08
-6.35262e-08
7.52569e-07
-1.22793e-07
-6.74935e-08
7.3496e-07
-7.13191e-08
7.0559e-07
-1.48714e-07
1.26345e-07
-1.04282e-07
6.81738e-07
-1.5061e-07
9.56661e-08
-1.00291e-07
7.17574e-07
6.35262e-08
-9.56661e-08
7.39523e-07
3.15646e-08
-9.18578e-08
7.52569e-07
-3.08219e-16
-8.98553e-08
7.58762e-07
-3.15646e-08
-8.98553e-08
7.58762e-07
-6.35262e-08
-9.18578e-08
7.52569e-07
-9.56661e-08
-9.56661e-08
7.39523e-07
-1.26345e-07
-1.00291e-07
7.17574e-07
-1.04282e-07
6.81738e-07
-1.5061e-07
1.29991e-07
-1.32246e-07
6.43127e-07
-1.51578e-07
1.00291e-07
-1.29991e-07
6.88548e-07
6.74935e-08
-1.26345e-07
7.17574e-07
3.37745e-08
-1.22793e-07
7.3496e-07
-2.66266e-16
-1.209e-07
7.43173e-07
-3.37745e-08
-1.209e-07
7.43173e-07
-6.74935e-08
-1.22793e-07
7.3496e-07
-1.00291e-07
-1.26345e-07
7.17574e-07
-1.29992e-07
-1.29991e-07
6.88548e-07
-1.32246e-07
6.43127e-07
-1.51578e-07
1.32246e-07
5.86948e-07
-1.50747e-07
-1.50747e-07
1.04282e-07
6.43127e-07
-1.51578e-07
7.13191e-08
6.81738e-07
-1.5061e-07
3.60239e-08
7.0559e-07
-1.48714e-07
6.75519e-17
7.16988e-07
-1.47719e-07
-3.60239e-08
7.16988e-07
-1.47719e-07
-7.13191e-08
7.0559e-07
-1.48714e-07
-1.04282e-07
6.81738e-07
-1.5061e-07
-1.32246e-07
6.43127e-07
-1.51578e-07
5.86948e-07
-1.50747e-07
-1.50747e-07
1.07523e-07
1.07523e-07
5.96886e-07
-1.12492e-07
-1.12492e-07
9.04268e-08
1.13944e-07
6.67448e-07
-1.2117e-07
6.45076e-08
1.16454e-07
7.16802e-07
-1.25598e-07
3.34204e-08
1.16776e-07
7.47468e-07
-1.27567e-07
-2.07479e-16
1.16634e-07
7.62092e-07
-1.28318e-07
-3.34204e-08
1.16634e-07
7.62092e-07
-1.28318e-07
-6.45076e-08
1.16776e-07
7.47468e-07
-1.27567e-07
-9.04268e-08
1.16454e-07
7.16802e-07
-1.25598e-07
-1.07523e-07
1.13944e-07
6.67448e-07
-1.2117e-07
1.07523e-07
5.96886e-07
-1.12492e-07
-1.12492e-07
1.13944e-07
9.04268e-08
6.67448e-07
-1.2117e-07
9.39431e-08
9.39431e-08
7.2855e-07
6.60869e-08
9.44625e-08
7.67421e-07
3.3936e-08
9.36716e-08
7.90215e-07
-1.09172e-16
9.29998e-08
8.00743e-07
-3.3936e-08
9.29998e-08
8.00743e-07
-6.60869e-08
9.36716e-08
7.90215e-07
-9.39431e-08
9.44625e-08
7.67421e-07
-1.13944e-07
9.39431e-08
7.2855e-07
9.04268e-08
6.67448e-07
-1.2117e-07
1.16454e-07
6.45076e-08
7.16802e-07
-1.25598e-07
9.44625e-08
6.60869e-08
7.67421e-07
6.56288e-08
6.56288e-08
7.97191e-07
3.34618e-08
6.45594e-08
8.13848e-07
-4.55656e-17
6.38374e-08
8.21386e-07
-3.34618e-08
6.38374e-08
8.21386e-07
-6.56288e-08
6.45594e-08
8.13848e-07
-9.44625e-08
6.56288e-08
7.97191e-07
-1.16454e-07
6.60869e-08
7.67421e-07
6.45076e-08
7.16802e-07
-1.25598e-07
1.16776e-07
3.34204e-08
7.47468e-07
-1.27567e-07
9.36716e-08
3.3936e-08
7.90215e-07
6.45594e-08
3.34618e-08
8.13848e-07
3.27744e-08
3.27744e-08
8.26693e-07
-1.46243e-16
3.23403e-08
8.32471e-07
-3.27744e-08
3.23403e-08
8.32471e-07
-6.45594e-08
3.27744e-08
8.26693e-07
-9.36716e-08
3.34618e-08
8.13848e-07
-1.16776e-07
3.3936e-08
7.90215e-07
3.34204e-08
7.47468e-07
-1.27567e-07
1.16634e-07
-4.58066e-16
7.62092e-07
-1.28318e-07
9.29998e-08
-4.2249e-16
8.00743e-07
6.38374e-08
-3.72426e-16
8.21386e-07
3.23403e-08
-5.32611e-16
8.32471e-07
-1.79385e-16
-5.25312e-16
8.37464e-07
-3.23403e-08
-3.04102e-16
8.37464e-07
-6.38374e-08
-2.34626e-16
8.32471e-07
-9.29998e-08
-2.61304e-16
8.21386e-07
-1.16634e-07
-2.91621e-16
8.00743e-07
-2.33042e-16
7.62092e-07
-1.28318e-07
1.16634e-07
-3.34204e-08
7.62092e-07
-1.28318e-07
9.29998e-08
-3.3936e-08
8.00743e-07
6.38374e-08
-3.34618e-08
8.21386e-07
3.23403e-08
-3.27744e-08
8.32471e-07
-2.08058e-17
-3.23403e-08
8.37464e-07
-3.23403e-08
-3.23403e-08
8.37464e-07
-6.38374e-08
-3.27744e-08
8.32471e-07
-9.29998e-08
-3.34618e-08
8.21386e-07
-1.16634e-07
-3.3936e-08
8.00743e-07
-3.34204e-08
7.62092e-07
-1.28318e-07
1.16776e-07
-6.45076e-08
7.47468e-07
-1.27567e-07
9.36716e-08
-6.60869e-08
7.90215e-07
6.45594e-08
-6.56288e-08
8.13848e-07
3.27744e-08
-6.45594e-08
8.26693e-07
6.4787e-17
-6.38374e-08
8.32471e-07
-3.27744e-08
-6.38374e-08
8.32471e-07
-6.45594e-08
-6.45594e-08
8.26693e-07
-9.36716e-08
-6.56288e-08
8.13848e-07
-1.16776e-07
-6.60869e-08
7.90215e-07
-6.45076e-08
7.47468e-07
-1.27567e-07
1.16454e-07
-9.04268e-08
7.16802e-07
-1.25598e-07
9.44625e-08
-9.39431e-08
7.67421e-07
6.56288e-08
-9.44625e-08
7.97191e-07
3.34618e-08
-9.36716e-08
8.13848e-07
-9.86849e-17
-9.29998e-08
8.21386e-07
-3.34618e-08
-9.29998e-08
8.21386e-07
-6.56288e-08
-9.36716e-08
8.13848e-07
-9.44625e-08
-9.44625e-08
7.97191e-07
-1.16454e-07
-9.39431e-08
7.67421e-07
-9.04268e-08
7.16802e-07
-1.25598e-07
1.13944e-07
-1.07523e-07
6.67448e-07
-1.2117e-07
9.39431e-08
-1.13944e-07
7.2855e-07
6.60869e-08
-1.16454e-07
7.67421e-07
3.3936e-08
-1.16776e-07
7.90215e-07
-3.66068e-16
-1.16634e-07
8.00743e-07
-3.3936e-08
-1.16634e-07
8.00743e-07
-6.60869e-08
-1.16776e-07
7.90215e-07
-9.39431e-08
-1.16454e-07
7.67421e-07
-1.13944e-07
-1.13944e-07
7.2855e-07
-1.07523e-07
6.67448e-07
-1.2117e-07
1.07523e-07
5.96886e-07
-1.12492e-07
-1.12492e-07
9.04268e-08
6.67448e-07
-1.2117e-07
6.45076e-08
7.16802e-07
-1.25598e-07
3.34204e-08
7.47468e-07
-1.27567e-07
-1.22987e-17
7.62092e-07
-1.28318e-07
-3.34204e-08
7.62092e-07
-1.28318e-07
-6.45076e-08
7.47468e-07
-1.27567e-07
-9.04268e-08
7.16802e-07
-1.25598e-07
-1.07523e-07
6.67448e-07
-1.2117e-07
5.96886e-07
-1.12492e-07
-1.12492e-07
5.95886e-08
5.95886e-08
5.95799e-07
-5.90451e-08
-5.90451e-08
5.25466e-08
6.77311e-08
6.74388e-07
-6.7629e-08
3.87202e-08
7.26561e-08
7.30829e-07
-7.28569e-08
2.04709e-08
7.52301e-08
7.66508e-07
-7.60209e-08
-5.52761e-17
7.63049e-08
7.83672e-07
-7.74135e-08
-2.04709e-08
7.63049e-08
7.83672e-07
-7.74135e-08
-3.87202e-08
7.52301e-08
7.66508e-07
-7.60209e-08
-5.25466e-08
7.26561e-08
7.30829e-07
-7.28569e-08
-5.95886e-08
6.77311e-08
6.74388e-07
-6.7629e-08
5.95886e-08
5.95799e-07
-5.90451e-08
-5.90451e-08
6.77311e-08
5.25466e-08
6.74388e-07
-6.7629e-08
5.87095e-08
5.87095e-08
7.46593e-07
4.27605e-08
6.22236e-08
7.93803e-07
2.24232e-08
6.38725e-08
8.2191e-07
4.83513e-16
6.44965e-08
8.34975e-07
-2.24232e-08
6.44965e-08
8.34975e-07
-4.27605e-08
6.38725e-08
8.2191e-07
-5.87095e-08
6.22236e-08
7.93803e-07
-6.77311e-08
5.87095e-08
7.46593e-07
5.25466e-08
6.74388e-07
-6.7629e-08
7.26561e-08
3.87202e-08
7.30829e-07
-7.28569e-08
6.22236e-08
4.27605e-08
7.93803e-07
4.48678e-08
4.48678e-08
8.31902e-07
2.33836e-08
4.57581e-08
8.53446e-07
6.3861e-16
4.60554e-08
8.63211e-07
-2.33836e-08
4.60554e-08
8.63211e-07
-4.48678e-08
4.57581e-08
8.53446e-07
-6.22236e-08
4.48678e-08
8.31902e-07
-7.26561e-08
4.27605e-08
7.93803e-07
3.87202e-08
7.30829e-07
-7.28569e-08
7.52301e-08
2.04709e-08
7.66508e-07
-7.60209e-08
6.38725e-08
2.24232e-08
8.2191e-07
4.57581e-08
2.33836e-08
8.53446e-07
2.3762e-08
2.3762e-08
8.70686e-07
2.49907e-16
2.38758e-08
8.78413e-07
-2.3762e-08
2.38758e-08
8.78413e-07
-4.57581e-08
2.3762e-08
8.70686e-07
-6.38725e-08
2.33836e-08
8.53446e-07
-7.52301e-08
2.24232e-08
8.2191e-07
2.04709e-08
7.66508e-07
-7.60209e-08
7.63049e-08
-4.94203e-16
7.83672e-07
-7.74135e-08
6.44965e-08
-1.21229e-17
8.34975e-07
4.60554e-08
2.49404e-16
8.63211e-07
2.38758e-08
5.59616e-17
8.78413e-07
8.98613e-17
-1.13039e-16
8.85215e-07
-2.38758e-08
-2.75942e-17
8.85215e-07
-4.60554e-08
-6.41961e-17
8.78413e-07
-6.44965e-08
-3.42345e-16
8.63211e-07
-7.63049e-08
-6.82218e-16
8.34975e-07
-5.29529e-16
7.83672e-07
-7.74135e-08
7.63049e-08
-2.04709e-08
7.83672e-07
-7.74135e-08
6.44965e-08
-2.24232e-08
8.34975e-07
4.60554e-08
-2.33836e-08
8.63211e-07
2.38758e-08
-2.3762e-08
8.78413e-07
1.00124e-16
-2.38758e-08
8.85215e-07
-2.38758e-08
-2.38758e-08
8.85215e-07
-4.60554e-08
-2.3762e-08
8.78413e-07
-6.44965e-08
-2.33836e-08
8.63211e-07
-7.63049e-08
-2.24232e-08
8.34975e-07
-2.04709e-08
7.83672e-07
-7.74135e-08
7.52301e-08
-3.87202e-08
7.66508e-07
-7.60209e-08
6.38725e-08
-4.27605e-08
8.2191e-07
4.57581e-08
-4.48678e-08
8.53446e-07
2.3762e-08
-4.57581e-08
8.70686e-07
-3.76096e-17
-4.60554e-08
8.78413e-07
-2.3762e-08
-4.60554e-08
8.78413e-07
-4.57581e-08
-4.57581e-08
8.70686e-07
-6.38725e-08
-4.48678e-08
8.53446e-07
-7.52301e-08
-4.27605e-08
8.2191e-07
-3.87202e-08
7.66508e-07
-7.60209e-08
7.26561e-08
-5.25466e-08
7.30829e-07
-7.28569e-08
6.22236e-08
-5.87095e-08
7.93803e-07
4.48678e-08
-6.22236e-08
8.31902e-07
2.33836e-08
-6.38725e-08
8.53446e-07
-4.13795e-16
-6.44965e-08
8.63211e-07
-2.33836e-08
-6.44965e-08
8.63211e-07
-4.48678e-08
-6.38725e-08
8.53446e-07
-6.22236e-08
-6.22236e-08
8.31902e-07
-7.26561e-08
-5.87095e-08
7.93803e-07
-5.25466e-08
7.30829e-07
-7.28569e-08
6.77311e-08
-5.95886e-08
6.74388e-07
-6.7629e-08
5.87095e-08
-6.77311e-08
7.46593e-07
4.27605e-08
-7.26561e-08
7.93803e-07
2.24232e-08
-7.52301e-08
8.2191e-07
-9.27606e-16
-7.63049e-08
8.34975e-07
-2.24232e-08
-7.63049e-08
8.34975e-07
-4.27605e-08
-7.52301e-08
8.2191e-07
-5.87095e-08
-7.26561e-08
7.93803e-07
-6.77311e-08
-6.77311e-08
7.46593e-07
-5.95886e-08
6.74388e-07
-6.7629e-08
5.95886e-08
5.95799e-07
-5.90451e-08
-5.90451e-08
5.25466e-08
6.74388e-07
-6.7629e-08
3.87202e-08
7.30829e-07
-7.28569e-08
2.04709e-08
7.66508e-07
-7.60209e-08
-3.78394e-16
7.83672e-07
-7.74135e-08
-2.04709e-08
7.83672e-07
-7.74135e-08
-3.87202e-08
7.66508e-07
-7.60209e-08
-5.25466e-08
7.30829e-07
-7.28569e-08
-5.95886e-08
6.74388e-07
-6.7629e-08
5.95799e-07
-5.90451e-08
-5.90451e-08
3.32926e-08
3.32926e-08
5.926e-07
-3.1693e-08
-3.1693e-08
3.01461e-08
3.90565e-08
6.75494e-07
-3.70163e-08
2.26879e-08
4.30498e-08
7.36044e-07
-4.08069e-08
1.21542e-08
4.54504e-08
7.74827e-07
-4.32356e-08
-6.16691e-17
4.65435e-08
7.9363e-07
-4.43477e-08
-1.21542e-08
4.65435e-08
7.9363e-07
-4.43477e-08
-2.26879e-08
4.54504e-08
7.74827e-07
-4.32356e-08
-3.01461e-08
4.30498e-08
7.36044e-07
-4.08069e-08
-3.32926e-08
3.90565e-08
6.75494e-07
-3.70163e-08
3.32926e-08
5.926e-07
-3.1693e-08
-3.1693e-08
3.90565e-08
3.01461e-08
6.75494e-07
-3.70163e-08
3.51204e-08
3.51204e-08
7.54465e-07
2.62515e-08
3.84564e-08
8.07265e-07
1.39869e-08
4.03717e-08
8.39254e-07
3.45485e-16
4.12243e-08
8.54281e-07
-1.39869e-08
4.12243e-08
8.54281e-07
-2.62515e-08
4.03717e-08
8.39254e-07
-3.51204e-08
3.84564e-08
8.07265e-07
-3.90565e-08
3.51204e-08
7.54465e-07
3.01461e-08
6.75494e-07
-3.70163e-08
4.30498e-08
2.26879e-08
7.36044e-07
-4.08069e-08
3.84564e-08
2.62515e-08
8.07265e-07
2.85663e-08
2.85663e-08
8.51683e-07
1.5155e-08
2.9855e-08
8.77374e-07
4.63054e-16
3.04157e-08
8.89174e-07
-1.5155e-08
3.04157e-08
8.89174e-07
-2.85663e-08
2.9855e-08
8.77374e-07
-3.84564e-08
2.85663e-08
8.51683e-07
-4.30498e-08
2.62515e-08
8.07265e-07
2.26879e-08
7.36044e-07
-4.08069e-08
4.54504e-08
1.21542e-08
7.74827e-07
-4.32356e-08
4.03717e-08
1.39869e-08
8.39254e-07
2.9855e-08
1.5155e-08
8.77374e-07
1.57971e-08
1.57971e-08
8.98801e-07
1.40769e-16
1.6073e-08
9.08552e-07
-1.57971e-08
1.6073e-08
9.08552e-07
-2.9855e-08
1.57971e-08
8.98801e-07
-4.03717e-08
1.5155e-08
8.77374e-07
-4.54504e-08
1.39869e-08
8.39254e-07
1.21542e-08
7.74827e-07
-4.32356e-08
4.65435e-08
-3.06082e-16
7.9363e-07
-4.43477e-08
4.12243e-08
4.44083e-17
8.54281e-07
3.04157e-08
2.89839e-16
8.89174e-07
1.6073e-08
1.6525e-16
9.08552e-07
2.02752e-16
4.89006e-17
9.17361e-07
-1.6073e-08
3.44056e-16
9.17361e-07
-3.04157e-08
4.01365e-16
9.08552e-07
-4.12243e-08
5.77567e-17
8.89174e-07
-4.65435e-08
-4.49223e-16
8.54281e-07
-4.87468e-16
7.9363e-07
-4.43477e-08
4.65435e-08
-1.21542e-08
7.9363e-07
-4.43477e-08
4.12243e-08
-1.39869e-08
8.54281e-07
3.04157e-08
-1.5155e-08
8.89174e-07
1.6073e-08
-1.57971e-08
9.08552e-07
4.14372e-16
-1.6073e-08
9.17361e-07
-1.6073e-08
-1.6073e-08
9.17361e-07
-3.04157e-08
-1.57971e-08
9.08552e-07
-4.12243e-08
-1.5155e-08
8.89174e-07
-4.65435e-08
-1.39869e-08
8.54281e-07
-1.21542e-08
7.9363e-07
-4.43477e-08
4.54504e-08
-2.26879e-08
7.74827e-07
-4.32356e-08
4.03717e-08
-2.62515e-08
8.39254e-07
2.9855e-08
-2.85663e-08
8.77374e-07
1.57971e-08
-2.9855e-08
8.98801e-07
3.16453e-16
-3.04157e-08
9.08552e-07
-1.57971e-08
-3.04157e-08
9.08552e-07
-2.9855e-08
-2.9855e-08
8.98801e-07
-4.03717e-08
-2.85663e-08
8.77374e-07
-4.54504e-08
-2.62515e-08
8.39254e-07
-2.26879e-08
7.74827e-07
-4.32356e-08
4.30498e-08
-3.01461e-08
7.36044e-07
-4.08069e-08
3.84564e-08
-3.51204e-08
8.07265e-07
2.85663e-08
-3.84564e-08
8.51683e-07
1.5155e-08
-4.03717e-08
8.77374e-07
-1.00449e-16
-4.12243e-08
8.89174e-07
-1.5155e-08
-4.12243e-08
8.89174e-07
-2.85663e-08
-4.03717e-08
8.77374e-07
-3.84564e-08
-3.84564e-08
8.51683e-07
-4.30498e-08
-3.51204e-08
8.07265e-07
-3.01461e-08
7.36044e-07
-4.08069e-08
3.90565e-08
-3.32926e-08
6.75494e-07
-3.70163e-08
3.51204e-08
-3.90565e-08
7.54465e-07
2.62515e-08
-4.30498e-08
8.07265e-07
1.39869e-08
-4.54504e-08
8.39254e-07
-7.45662e-16
-4.65435e-08
8.54281e-07
-1.39869e-08
-4.65435e-08
8.54281e-07
-2.62515e-08
-4.54504e-08
8.39254e-07
-3.51204e-08
-4.30498e-08
8.07265e-07
-3.90565e-08
-3.90565e-08
7.54465e-07
-3.32926e-08
6.75494e-07
-3.70163e-08
3.32926e-08
5.926e-07
-3.1693e-08
-3.1693e-08
3.01461e-08
6.75494e-07
-3.70163e-08
2.26879e-08
7.36044e-07
-4.08069e-08
1.21542e-08
7.74827e-07
-4.32356e-08
-2.01699e-16
7.9363e-07
-4.43477e-08
-1.21542e-08
7.9363e-07
-4.43477e-08
-2.26879e-08
7.74827e-07
-4.32356e-08
-3.01461e-08
7.36044e-07
-4.08069e-08
-3.32926e-08
6.75494e-07
-3.70163e-08
5.926e-07
-3.1693e-08
-3.1693e-08
1.53444e-08
1.53444e-08
5.89611e-07
-1.385e-08
-1.385e-08
1.44962e-08
1.90157e-08
6.74175e-07
-1.68476e-08
1.12556e-08
2.18498e-08
7.36639e-07
-1.92034e-08
6.14554e-09
2.37247e-08
7.7703e-07
-2.08178e-08
3.00603e-17
2.46318e-08
7.96736e-07
-2.15918e-08
-6.14554e-09
2.46318e-08
7.96736e-07
-2.15918e-08
-1.12556e-08
2.37247e-08
7.7703e-07
-2.08178e-08
-1.44962e-08
2.18498e-08
7.36639e-07
-1.92034e-08
-1.53444e-08
1.90157e-08
6.74175e-07
-1.68476e-08
1.53444e-08
5.89611e-07
-1.385e-08
-1.385e-08
1.90157e-08
1.44962e-08
6.74175e-07
-1.68476e-08
1.80009e-08
1.80009e-08
7.56495e-07
1.39502e-08
2.06598e-08
8.12506e-07
7.59527e-09
2.23713e-08
8.46962e-07
6.11995e-16
2.31932e-08
8.63315e-07
-7.59527e-09
2.31932e-08
8.63315e-07
-1.39502e-08
2.23713e-08
8.46962e-07
-1.80009e-08
2.06598e-08
8.12506e-07
-1.90157e-08
1.80009e-08
7.56495e-07
1.44962e-08
6.74175e-07
-1.68476e-08
2.18498e-08
1.12556e-08
7.36639e-07
-1.92034e-08
2.06598e-08
1.39502e-08
8.12506e-07
1.59611e-08
1.59611e-08
8.6108e-07
8.66499e-09
1.72316e-08
8.8981e-07
8.09828e-16
1.78346e-08
9.03198e-07
-8.66499e-09
1.78346e-08
9.03198e-07
-1.59611e-08
1.72316e-08
8.8981e-07
-2.06598e-08
1.59611e-08
8.6108e-07
-2.18498e-08
1.39502e-08
8.12506e-07
1.12556e-08
7.36639e-07
-1.92034e-08
2.37247e-08
6.14554e-09
7.7703e-07
-2.08178e-08
2.23713e-08
7.59527e-09
8.46962e-07
1.72316e-08
8.66499e-09
8.8981e-07
9.33495e-09
9.33495e-09
9.14595e-07
4.17873e-16
9.6506e-09
9.26071e-07
-9.33495e-09
9.6506e-09
9.26071e-07
-1.72316e-08
9.33495e-09
9.14595e-07
-2.23713e-08
8.66499e-09
8.8981e-07
-2.37247e-08
7.59527e-09
8.46962e-07
6.14554e-09
7.7703e-07
-2.08178e-08
2.46318e-08
-2.76663e-16
7.96736e-07
-2.15918e-08
2.31932e-08
2.19762e-16
8.63315e-07
1.78346e-08
5.31925e-16
9.03198e-07
9.6506e-09
4.49022e-16
9.26071e-07
2.81974e-16
2.96951e-16
9.36663e-07
-9.6506e-09
4.29468e-16
9.36663e-07
-1.78346e-08
2.55525e-16
9.26071e-07
-2.31932e-08
-5.68573e-17
9.03198e-07
-2.46318e-08
-4.06143e-16
8.63315e-07
-4.06556e-16
7.96736e-07
-2.15918e-08
2.46318e-08
-6.14554e-09
7.96736e-07
-2.15918e-08
2.31932e-08
-7.59527e-09
8.63315e-07
1.78346e-08
-8.66499e-09
9.03198e-07
9.6506e-09
-9.33495e-09
9.26071e-07
3.6548e-16
-9.6506e-09
9.36663e-07
-9.6506e-09
-9.6506e-09
9.36663e-07
-1.78346e-08
-9.33495e-09
9.26071e-07
-2.31932e-08
-8.66499e-09
9.03198e-07
-2.46318e-08
-7.59527e-09
8.63315e-07
-6.14554e-09
7.96736e-07
-2.15918e-08
2.37247e-08
-1.12556e-08
7.7703e-07
-2.08178e-08
2.23713e-08
-1.39502e-08
8.46962e-07
1.72316e-08
-1.59611e-08
8.8981e-07
9.33495e-09
-1.72316e-08
9.14595e-07
1.67014e-16
-1.78346e-08
9.26071e-07
-9.33495e-09
-1.78346e-08
9.26071e-07
-1.72316e-08
-1.72316e-08
9.14595e-07
-2.23713e-08
-1.59611e-08
8.8981e-07
-2.37247e-08
-1.39502e-08
8.46962e-07
-1.12556e-08
7.7703e-07
-2.08178e-08
2.18498e-08
-1.44962e-08
7.36639e-07
-1.92034e-08
2.06598e-08
-1.80009e-08
8.12506e-07
1.59611e-08
-2.06598e-08
8.6108e-07
8.66499e-09
-2.23713e-08
8.8981e-07
-2.01275e-16
-2.31932e-08
9.03198e-07
-8.66499e-09
-2.31932e-08
9.03198e-07
-1.59611e-08
-2.23713e-08
8.8981e-07
-2.06598e-08
-2.06598e-08
8.6108e-07
-2.18498e-08
-1.80009e-08
8.12506e-07
-1.44962e-08
7.36639e-07
-1.92034e-08
1.90157e-08
-1.53444e-08
6.74175e-07
-1.68476e-08
1.80009e-08
-1.90157e-08
7.56495e-07
1.39502e-08
-2.18498e-08
8.12506e-07
7.59527e-09
-2.37247e-08
8.46962e-07
-6.28332e-16
-2.46318e-08
8.63315e-07
-7.59527e-09
-2.46318e-08
8.63315e-07
-1.39502e-08
-2.37247e-08
8.46962e-07
-1.80009e-08
-2.18498e-08
8.12506e-07
-1.90157e-08
-1.90157e-08
7.56495e-07
-1.53444e-08
6.74175e-07
-1.68476e-08
1.53444e-08
5.89611e-07
-1.385e-08
-1.385e-08
1.44962e-08
6.74175e-07
-1.68476e-08
1.12556e-08
7.36639e-07
-1.92034e-08
6.14554e-09
7.7703e-07
-2.08178e-08
-1.00262e-16
7.96736e-07
-2.15918e-08
-6.14554e-09
7.96736e-07
-2.15918e-08
-1.12556e-08
7.7703e-07
-2.08178e-08
-1.44962e-08
7.36639e-07
-1.92034e-08
-1.53444e-08
6.74175e-07
-1.68476e-08
5.89611e-07
-1.385e-08
-1.385e-08
6.0858e-09
6.0858e-09
5.87814e-07
-5.18755e-09
-5.18755e-09
6.01322e-09
7.9901e-09
6.72824e-07
-6.56685e-09
4.82458e-09
9.60275e-09
7.3598e-07
-7.75512e-09
2.68689e-09
1.07489e-08
7.77037e-07
-8.61855e-09
1.34226e-16
1.13275e-08
7.97143e-07
-9.04809e-09
-2.68689e-09
1.13275e-08
7.97143e-07
-9.04809e-09
-4.82458e-09
1.07489e-08
7.77037e-07
-8.61855e-09
-6.01322e-09
9.60275e-09
7.3598e-07
-7.75512e-09
-6.0858e-09
7.9901e-09
6.72824e-07
-6.56685e-09
6.0858e-09
5.87814e-07
-5.18755e-09
-5.18755e-09
7.9901e-09
6.01322e-09
6.72824e-07
-6.56685e-09
8.00269e-09
8.00269e-09
7.5647e-07
6.44935e-09
9.66456e-09
8.13997e-07
3.59302e-09
1.08195e-08
8.49748e-07
3.88063e-16
1.13996e-08
8.66836e-07
-3.59302e-09
1.13996e-08
8.66836e-07
-6.44935e-09
1.08195e-08
8.49748e-07
-8.00269e-09
9.66456e-09
8.13997e-07
-7.9901e-09
8.00269e-09
7.5647e-07
6.01322e-09
6.72824e-07
-6.56685e-09
9.60275e-09
4.82458e-09
7.3598e-07
-7.75512e-09
9.66456e-09
6.44935e-09
8.13997e-07
7.78729e-09
7.78729e-09
8.64834e-07
4.33078e-09
8.70079e-09
8.95385e-07
4.08713e-16
9.15478e-09
9.09773e-07
-4.33077e-09
9.15478e-09
9.09773e-07
-7.78729e-09
8.70079e-09
8.95385e-07
-9.66456e-09
7.78729e-09
8.64834e-07
-9.60275e-09
6.44936e-09
8.13997e-07
4.82458e-09
7.3598e-07
-7.75512e-09
1.07489e-08
2.68689e-09
7.77037e-07
-8.61855e-09
1.08195e-08
3.59302e-09
8.49748e-07
8.70079e-09
4.33078e-09
8.95385e-07
4.82941e-09
4.82941e-09
9.22338e-07
1.86764e-16
5.07535e-09
9.3498e-07
-4.82941e-09
5.07535e-09
9.3498e-07
-8.70079e-09
4.82941e-09
9.22338e-07
-1.08195e-08
4.33078e-09
8.95385e-07
-1.07489e-08
3.59302e-09
8.49748e-07
2.68689e-09
7.77037e-07
-8.61855e-09
1.13275e-08
-3.05948e-16
7.97143e-07
-9.04809e-09
1.13996e-08
-4.10351e-17
8.66836e-07
9.15478e-09
2.5422e-16
9.09773e-07
5.07535e-09
3.27783e-16
9.3498e-07
2.95792e-16
2.90895e-16
9.46813e-07
-5.07535e-09
3.79749e-16
9.46813e-07
-9.15478e-09
2.99788e-16
9.3498e-07
-1.13996e-08
9.26668e-17
9.09773e-07
-1.13275e-08
-2.63428e-16
8.66836e-07
-2.97631e-16
7.97143e-07
-9.04808e-09
1.13275e-08
-2.68689e-09
7.97143e-07
-9.04809e-09
1.13996e-08
-3.59302e-09
8.66836e-07
9.15478e-09
-4.33078e-09
9.09773e-07
5.07535e-09
-4.82941e-09
9.3498e-07
3.78661e-16
-5.07535e-09
9.46813e-07
-5.07535e-09
-5.07535e-09
9.46813e-07
-9.15478e-09
-4.82941e-09
9.3498e-07
-1.13996e-08
-4.33078e-09
9.09773e-07
-1.13275e-08
-3.59302e-09
8.66836e-07
-2.68689e-09
7.97143e-07
-9.04808e-09
1.07489e-08
-4.82458e-09
7.77037e-07
-8.61855e-09
1.08195e-08
-6.44936e-09
8.49748e-07
8.70079e-09
-7.78729e-09
8.95385e-07
4.82941e-09
-8.70079e-09
9.22338e-07
2.10641e-16
-9.15478e-09
9.3498e-07
-4.82941e-09
-9.15478e-09
9.3498e-07
-8.70079e-09
-8.70079e-09
9.22338e-07
-1.08195e-08
-7.78729e-09
8.95385e-07
-1.07489e-08
-6.44936e-09
8.49748e-07
-4.82458e-09
7.77037e-07
-8.61855e-09
9.60275e-09
-6.01322e-09
7.3598e-07
-7.75512e-09
9.66456e-09
-8.00269e-09
8.13997e-07
7.78729e-09
-9.66456e-09
8.64834e-07
4.33078e-09
-1.08195e-08
8.95385e-07
-2.93135e-17
-1.13996e-08
9.09773e-07
-4.33078e-09
-1.13996e-08
9.09773e-07
-7.78729e-09
-1.08195e-08
8.95385e-07
-9.66456e-09
-9.66456e-09
8.64834e-07
-9.60275e-09
-8.00269e-09
8.13997e-07
-6.01322e-09
7.3598e-07
-7.75512e-09
7.9901e-09
-6.0858e-09
6.72824e-07
-6.56685e-09
8.00269e-09
-7.9901e-09
7.5647e-07
6.44935e-09
-9.60275e-09
8.13997e-07
3.59302e-09
-1.07489e-08
8.49748e-07
-3.96666e-16
-1.13275e-08
8.66836e-07
-3.59302e-09
-1.13275e-08
8.66836e-07
-6.44936e-09
-1.07489e-08
8.49748e-07
-8.00269e-09
-9.60275e-09
8.13997e-07
-7.9901e-09
-7.9901e-09
7.5647e-07
-6.0858e-09
6.72824e-07
-6.56685e-09
6.0858e-09
5.87814e-07
-5.18755e-09
-5.18755e-09
6.01322e-09
6.72824e-07
-6.56685e-09
4.82458e-09
7.3598e-07
-7.75512e-09
2.68689e-09
7.77037e-07
-8.61855e-09
-2.54937e-16
7.97143e-07
-9.04808e-09
-2.68689e-09
7.97143e-07
-9.04808e-09
-4.82458e-09
7.77037e-07
-8.61855e-09
-6.01322e-09
7.3598e-07
-7.75512e-09
-6.0858e-09
6.72824e-07
-6.56685e-09
5.87814e-07
-5.18755e-09
-5.18755e-09
2.10574e-09
2.10574e-09
5.86908e-07
-1.6524e-09
-1.6524e-09
2.20626e-09
2.9725e-09
6.71966e-07
-2.21515e-09
1.84322e-09
3.76255e-09
7.35321e-07
-2.74112e-09
1.05076e-09
4.3545e-09
7.76616e-07
-3.14065e-09
1.73423e-16
4.66272e-09
7.96877e-07
-3.34583e-09
-1.05076e-09
4.66272e-09
7.96877e-07
-3.34583e-09
-1.84322e-09
4.3545e-09
7.76616e-07
-3.14065e-09
-2.20626e-09
3.76255e-09
7.35321e-07
-2.74112e-09
-2.10573e-09
2.9725e-09
6.71966e-07
-2.21515e-09
2.10574e-09
5.86908e-07
-1.6524e-09
-1.6524e-09
2.9725e-09
2.20626e-09
6.71966e-07
-2.21515e-09
3.1834e-09
3.1834e-09
7.56048e-07
2.67999e-09
4.06018e-09
8.14203e-07
1.53032e-09
4.70285e-09
8.50549e-07
4.88416e-16
5.03554e-09
8.67993e-07
-1.53031e-09
5.03554e-09
8.67993e-07
-2.67999e-09
4.70285e-09
8.50549e-07
-3.1834e-09
4.06018e-09
8.14203e-07
-2.9725e-09
3.1834e-09
7.56048e-07
2.20626e-09
6.71966e-07
-2.21515e-09
3.76255e-09
1.84322e-09
7.35321e-07
-2.74112e-09
4.06018e-09
2.67999e-09
8.14203e-07
3.41965e-09
3.41965e-09
8.66115e-07
1.94886e-09
3.9517e-09
8.97607e-07
4.64088e-16
4.22391e-09
9.12534e-07
-1.94886e-09
4.22391e-09
9.12534e-07
-3.41965e-09
3.9517e-09
8.97607e-07
-4.06018e-09
3.41965e-09
8.66115e-07
-3.76255e-09
2.67999e-09
8.14203e-07
1.84322e-09
7.35321e-07
-2.74112e-09
4.3545e-09
1.05076e-09
7.76616e-07
-3.14065e-09
4.70285e-09
1.53032e-09
8.50549e-07
3.9517e-09
1.94886e-09
8.97607e-07
2.24646e-09
2.24646e-09
9.25748e-07
4.29892e-16
2.39743e-09
9.39053e-07
-2.24646e-09
2.39743e-09
9.39053e-07
-3.9517e-09
2.24646e-09
9.25748e-07
-4.70285e-09
1.94886e-09
8.97607e-07
-4.3545e-09
1.53032e-09