/*--------------------------------*- C++ -*----------------------------------*\
| =========                 |                                                 |
| \\      /  F ield         | OpenFOAM: The Open Source CFD Toolbox           |
|  \\    /   O peration     | Version:  2412                                  |
|   \\  /    A nd           | Website:  www.openfoam.com                      |
|    \\/     M anipulation  |                                                 |
\*---------------------------------------------------------------------------*/
FoamFile
{
    version     2.0;
    format      ascii;
    arch        "LSB;label=32;scalar=64";
    class       surfaceScalarField;
    location    "5.5";
    object      phi;
}
// * * * * * * * * * * * * * * * * * * * * * * * * * * * * * * * * * * * * * //

dimensions      [0 3 -1 0 0 0 0];

oriented        oriented;

internalField   nonuniform List<scalar> 
43700
(
1.86461e-07
1.86461e-07
5.49762e-07
-2.26333e-07
-2.26333e-07
1.38153e-07
1.65795e-07
5.94174e-07
-2.02278e-07
9.15663e-08
1.52364e-07
6.25751e-07
-1.92098e-07
4.54501e-08
1.43349e-07
6.46001e-07
-1.83522e-07
-8.25443e-17
1.38991e-07
6.55938e-07
-1.7955e-07
-4.54501e-08
1.38991e-07
6.55938e-07
-1.7955e-07
-9.15663e-08
1.43349e-07
6.46001e-07
-1.83522e-07
-1.38152e-07
1.52364e-07
6.25751e-07
-1.92098e-07
-1.86461e-07
1.65795e-07
5.94174e-07
-2.02278e-07
1.86461e-07
5.49762e-07
-2.26333e-07
-2.26333e-07
1.65795e-07
1.38152e-07
5.94174e-07
-2.02278e-07
1.23349e-07
1.23349e-07
6.30736e-07
8.1224e-08
1.11981e-07
6.56199e-07
4.01936e-08
1.04341e-07
6.72535e-07
2.01901e-16
1.0059e-07
6.80567e-07
-4.01936e-08
1.0059e-07
6.80567e-07
-8.1224e-08
1.04341e-07
6.72535e-07
-1.23349e-07
1.11981e-07
6.56199e-07
-1.65795e-07
1.23349e-07
6.30736e-07
1.38153e-07
5.94174e-07
-2.02278e-07
1.52364e-07
9.15663e-08
6.25751e-07
-1.92098e-07
1.11981e-07
8.1224e-08
6.56199e-07
7.31866e-08
7.31866e-08
6.77461e-07
3.6084e-08
6.77835e-08
6.91223e-07
2.01396e-16
6.51187e-08
6.98033e-07
-3.6084e-08
6.51187e-08
6.98033e-07
-7.31866e-08
6.77835e-08
6.91223e-07
-1.11981e-07
7.31866e-08
6.77461e-07
-1.52364e-07
8.1224e-08
6.56199e-07
9.15663e-08
6.25751e-07
-1.92098e-07
1.43349e-07
4.54501e-08
6.46001e-07
-1.83522e-07
1.04341e-07
4.01936e-08
6.72535e-07
6.77835e-08
3.6084e-08
6.91223e-07
3.33127e-08
3.33127e-08
7.03444e-07
6.15872e-18
3.19427e-08
7.09531e-07
-3.33127e-08
3.19427e-08
7.09531e-07
-6.77835e-08
3.33127e-08
7.03444e-07
-1.04341e-07
3.6084e-08
6.91223e-07
-1.43349e-07
4.01936e-08
6.72535e-07
4.54501e-08
6.46001e-07
-1.83522e-07
1.38991e-07
-3.05717e-16
6.55938e-07
-1.7955e-07
1.0059e-07
2.42588e-16
6.80567e-07
6.51187e-08
1.20191e-16
6.98033e-07
3.19427e-08
2.87241e-17
7.09531e-07
-1.48163e-17
-1.42903e-16
7.15278e-07
-3.19427e-08
-3.47075e-16
7.15278e-07
-6.51187e-08
-9.88072e-17
7.09531e-07
-1.0059e-07
1.75263e-16
6.98033e-07
-1.38991e-07
-7.45161e-17
6.80567e-07
-2.41375e-16
6.55938e-07
-1.7955e-07
1.38991e-07
-4.54501e-08
6.55938e-07
-1.7955e-07
1.0059e-07
-4.01936e-08
6.80567e-07
6.51187e-08
-3.6084e-08
6.98033e-07
3.19427e-08
-3.33127e-08
7.09531e-07
-3.46059e-16
-3.19427e-08
7.15278e-07
-3.19427e-08
-3.19427e-08
7.15278e-07
-6.51187e-08
-3.33127e-08
7.09531e-07
-1.0059e-07
-3.6084e-08
6.98033e-07
-1.38991e-07
-4.01936e-08
6.80567e-07
-4.54501e-08
6.55938e-07
-1.7955e-07
1.43349e-07
-9.15663e-08
6.46001e-07
-1.83522e-07
1.04341e-07
-8.1224e-08
6.72535e-07
6.77835e-08
-7.31866e-08
6.91223e-07
3.33127e-08
-6.77835e-08
7.03444e-07
-2.98251e-17
-6.51187e-08
7.09531e-07
-3.33127e-08
-6.51187e-08
7.09531e-07
-6.77835e-08
-6.77835e-08
7.03444e-07
-1.04341e-07
-7.31866e-08
6.91223e-07
-1.43349e-07
-8.1224e-08
6.72535e-07
-9.15663e-08
6.46001e-07
-1.83522e-07
1.52364e-07
-1.38153e-07
6.25751e-07
-1.92098e-07
1.11981e-07
-1.23349e-07
6.56199e-07
7.31866e-08
-1.11981e-07
6.77461e-07
3.6084e-08
-1.04341e-07
6.91223e-07
5.25397e-17
-1.0059e-07
6.98033e-07
-3.6084e-08
-1.0059e-07
6.98033e-07
-7.31866e-08
-1.04341e-07
6.91223e-07
-1.11981e-07
-1.11981e-07
6.77461e-07
-1.52364e-07
-1.23349e-07
6.56199e-07
-1.38153e-07
6.25751e-07
-1.92098e-07
1.65795e-07
-1.86461e-07
5.94174e-07
-2.02278e-07
1.23349e-07
-1.65795e-07
6.30736e-07
8.1224e-08
-1.52364e-07
6.56199e-07
4.01936e-08
-1.43349e-07
6.72535e-07
8.35942e-17
-1.38991e-07
6.80567e-07
-4.01936e-08
-1.38991e-07
6.80567e-07
-8.1224e-08
-1.43349e-07
6.72535e-07
-1.23349e-07
-1.52364e-07
6.56199e-07
-1.65795e-07
-1.65795e-07
6.30736e-07
-1.86461e-07
5.94174e-07
-2.02278e-07
1.86461e-07
5.49762e-07
-2.26333e-07
-2.26333e-07
1.38153e-07
5.94174e-07
-2.02278e-07
9.15663e-08
6.25751e-07
-1.92098e-07
4.54501e-08
6.46001e-07
-1.83522e-07
2.1001e-16
6.55938e-07
-1.7955e-07
-4.54501e-08
6.55938e-07
-1.7955e-07
-9.15663e-08
6.46001e-07
-1.83522e-07
-1.38153e-07
6.25751e-07
-1.92098e-07
-1.86461e-07
5.94174e-07
-2.02278e-07
5.49762e-07
-2.26333e-07
-2.26333e-07
1.15817e-07
1.15817e-07
5.84794e-07
-1.33332e-07
-1.33332e-07
9.08339e-08
1.13308e-07
6.38812e-07
-1.32962e-07
6.20338e-08
1.10298e-07
6.75975e-07
-1.31723e-07
3.1335e-08
1.07601e-07
6.99048e-07
-1.29949e-07
-9.12325e-17
1.06253e-07
7.10133e-07
-1.29113e-07
-3.1335e-08
1.06253e-07
7.10133e-07
-1.29113e-07
-6.20338e-08
1.07601e-07
6.99048e-07
-1.29949e-07
-9.08339e-08
1.10298e-07
6.75975e-07
-1.31723e-07
-1.15817e-07
1.13308e-07
6.38812e-07
-1.32962e-07
1.15817e-07
5.84794e-07
-1.33332e-07
-1.33332e-07
1.13308e-07
9.08339e-08
6.38812e-07
-1.32962e-07
8.74978e-08
8.74978e-08
6.82356e-07
5.91491e-08
8.41528e-08
7.10693e-07
2.97259e-08
8.15523e-08
7.28007e-07
1.75306e-16
8.02427e-08
7.36303e-07
-2.97259e-08
8.02427e-08
7.36303e-07
-5.91491e-08
8.15523e-08
7.28007e-07
-8.74978e-08
8.41528e-08
7.10693e-07
-1.13308e-07
8.74978e-08
6.82356e-07
9.08339e-08
6.38812e-07
-1.32962e-07
1.10298e-07
6.20338e-08
6.75975e-07
-1.31723e-07
8.41528e-08
5.91491e-08
7.10693e-07
5.64784e-08
5.64784e-08
7.3281e-07
2.83002e-08
5.45378e-08
7.46415e-07
4.59509e-17
5.3567e-08
7.53009e-07
-2.83002e-08
5.35671e-08
7.53009e-07
-5.64784e-08
5.45378e-08
7.46415e-07
-8.41528e-08
5.64784e-08
7.3281e-07
-1.10298e-07
5.91491e-08
7.10693e-07
6.20338e-08
6.75975e-07
-1.31723e-07
1.07601e-07
3.1335e-08
6.99048e-07
-1.29949e-07
8.15523e-08
2.97259e-08
7.28007e-07
5.45378e-08
2.83002e-08
7.46415e-07
2.72918e-08
2.72918e-08
7.57937e-07
1.06626e-16
2.67888e-08
7.63601e-07
-2.72918e-08
2.67888e-08
7.63601e-07
-5.45378e-08
2.72918e-08
7.57937e-07
-8.15523e-08
2.83002e-08
7.46415e-07
-1.07601e-07
2.97259e-08
7.28007e-07
3.1335e-08
6.99048e-07
-1.29949e-07
1.06253e-07
-2.0432e-16
7.10133e-07
-1.29113e-07
8.02427e-08
3.60926e-16
7.36303e-07
5.35671e-08
5.13336e-16
7.53009e-07
2.67888e-08
3.17064e-16
7.63601e-07
6.15069e-16
3.24578e-16
7.68855e-07
-2.67888e-08
3.67432e-16
7.68855e-07
-5.3567e-08
6.73497e-16
7.63601e-07
-8.02427e-08
3.57591e-16
7.53009e-07
-1.06253e-07
-1.74619e-16
7.36303e-07
-1.14154e-16
7.10133e-07
-1.29113e-07
1.06253e-07
-3.1335e-08
7.10133e-07
-1.29113e-07
8.02427e-08
-2.97259e-08
7.36303e-07
5.35671e-08
-2.83002e-08
7.53009e-07
2.67888e-08
-2.72918e-08
7.63601e-07
4.89202e-16
-2.67888e-08
7.68855e-07
-2.67888e-08
-2.67888e-08
7.68855e-07
-5.3567e-08
-2.72918e-08
7.63601e-07
-8.02427e-08
-2.83002e-08
7.53009e-07
-1.06253e-07
-2.97259e-08
7.36303e-07
-3.1335e-08
7.10133e-07
-1.29113e-07
1.07601e-07
-6.20338e-08
6.99048e-07
-1.29949e-07
8.15523e-08
-5.91491e-08
7.28007e-07
5.45378e-08
-5.64784e-08
7.46415e-07
2.72918e-08
-5.45378e-08
7.57937e-07
8.66486e-16
-5.3567e-08
7.63601e-07
-2.72918e-08
-5.3567e-08
7.63601e-07
-5.45378e-08
-5.45378e-08
7.57937e-07
-8.15523e-08
-5.64784e-08
7.46415e-07
-1.07601e-07
-5.91491e-08
7.28007e-07
-6.20338e-08
6.99048e-07
-1.29949e-07
1.10298e-07
-9.08339e-08
6.75975e-07
-1.31723e-07
8.41528e-08
-8.74978e-08
7.10693e-07
5.64784e-08
-8.41528e-08
7.3281e-07
2.83002e-08
-8.15523e-08
7.46415e-07
5.75554e-16
-8.02427e-08
7.53009e-07
-2.83002e-08
-8.02427e-08
7.53009e-07
-5.64784e-08
-8.15523e-08
7.46415e-07
-8.41528e-08
-8.41528e-08
7.3281e-07
-1.10298e-07
-8.74978e-08
7.10693e-07
-9.08339e-08
6.75975e-07
-1.31723e-07
1.13308e-07
-1.15817e-07
6.38812e-07
-1.32962e-07
8.74978e-08
-1.13308e-07
6.82356e-07
5.91491e-08
-1.10298e-07
7.10693e-07
2.97259e-08
-1.07601e-07
7.28007e-07
1.13421e-16
-1.06253e-07
7.36303e-07
-2.97259e-08
-1.06253e-07
7.36303e-07
-5.91491e-08
-1.07601e-07
7.28007e-07
-8.74978e-08
-1.10298e-07
7.10693e-07
-1.13308e-07
-1.13308e-07
6.82356e-07
-1.15817e-07
6.38812e-07
-1.32962e-07
1.15817e-07
5.84794e-07
-1.33332e-07
-1.33332e-07
9.08339e-08
6.38812e-07
-1.32962e-07
6.20338e-08
6.75975e-07
-1.31723e-07
3.1335e-08
6.99048e-07
-1.29949e-07
-7.68577e-17
7.10133e-07
-1.29113e-07
-3.1335e-08
7.10133e-07
-1.29113e-07
-6.20338e-08
6.99048e-07
-1.29949e-07
-9.08339e-08
6.75975e-07
-1.31723e-07
-1.15817e-07
6.38812e-07
-1.32962e-07
5.84794e-07
-1.33332e-07
-1.33332e-07
7.74562e-08
7.74562e-08
5.93917e-07
-8.20176e-08
-8.20176e-08
6.47975e-08
8.15011e-08
6.57211e-07
-8.72417e-08
4.61838e-08
8.33078e-08
7.01054e-07
-8.97731e-08
2.39408e-08
8.38449e-08
7.2836e-07
-9.09143e-08
-7.75681e-16
8.40174e-08
7.41478e-07
-9.1422e-08
-2.39408e-08
8.40174e-08
7.41478e-07
-9.1422e-08
-4.61838e-08
8.38449e-08
7.2836e-07
-9.09143e-08
-6.47975e-08
8.33078e-08
7.01054e-07
-8.97731e-08
-7.74562e-08
8.15011e-08
6.57211e-07
-8.72417e-08
7.74562e-08
5.93917e-07
-8.20176e-08
-8.20176e-08
8.15011e-08
6.47975e-08
6.57211e-07
-8.72417e-08
6.74744e-08
6.74744e-08
7.10409e-07
4.78633e-08
6.85367e-08
7.45075e-07
2.47529e-08
6.87301e-08
7.66232e-07
1.05466e-15
6.87268e-08
7.76347e-07
-2.47529e-08
6.87268e-08
7.76347e-07
-4.78633e-08
6.87301e-08
7.66232e-07
-6.74744e-08
6.85367e-08
7.45075e-07
-8.15011e-08
6.74744e-08
7.10409e-07
6.47975e-08
6.57211e-07
-8.72417e-08
8.33078e-08
4.61838e-08
7.01054e-07
-8.97731e-08
6.85367e-08
4.78633e-08
7.45075e-07
4.84378e-08
4.84378e-08
7.73008e-07
2.50138e-08
4.84783e-08
7.90091e-07
1.0198e-15
4.84204e-08
7.98329e-07
-2.50138e-08
4.84204e-08
7.98329e-07
-4.84378e-08
4.84783e-08
7.90091e-07
-6.85367e-08
4.84378e-08
7.73008e-07
-8.33078e-08
4.78633e-08
7.45075e-07
4.61838e-08
7.01054e-07
-8.97731e-08
8.38449e-08
2.39408e-08
7.2836e-07
-9.09143e-08
6.87301e-08
2.47529e-08
7.66232e-07
4.84783e-08
2.50138e-08
7.90091e-07
2.50158e-08
2.50158e-08
8.04861e-07
8.10446e-16
2.49741e-08
8.12063e-07
-2.50158e-08
2.49741e-08
8.12063e-07
-4.84783e-08
2.50158e-08
8.04861e-07
-6.87301e-08
2.50138e-08
7.90091e-07
-8.38449e-08
2.47529e-08
7.66232e-07
2.39408e-08
7.2836e-07
-9.09143e-08
8.40174e-08
-3.89537e-16
7.41478e-07
-9.1422e-08
6.87268e-08
1.61496e-15
7.76347e-07
4.84204e-08
1.21287e-15
7.98329e-07
2.49741e-08
1.04909e-15
8.12063e-07
7.08533e-16
8.8436e-16
8.18804e-07
-2.49741e-08
9.81734e-16
8.18804e-07
-4.84204e-08
1.04575e-15
8.12063e-07
-6.87268e-08
3.77025e-16
7.98329e-07
-8.40174e-08
-1.10157e-15
7.76347e-07
-1.34224e-15
7.41478e-07
-9.1422e-08
8.40174e-08
-2.39408e-08
7.41478e-07
-9.1422e-08
6.87268e-08
-2.47529e-08
7.76347e-07
4.84204e-08
-2.50138e-08
7.98329e-07
2.49741e-08
-2.50158e-08
8.12063e-07
6.80083e-16
-2.49741e-08
8.18804e-07
-2.49741e-08
-2.49741e-08
8.18804e-07
-4.84204e-08
-2.50158e-08
8.12063e-07
-6.87268e-08
-2.50138e-08
7.98329e-07
-8.40174e-08
-2.47529e-08
7.76347e-07
-2.39408e-08
7.41478e-07
-9.1422e-08
8.38449e-08
-4.61838e-08
7.2836e-07
-9.09143e-08
6.87301e-08
-4.78633e-08
7.66232e-07
4.84783e-08
-4.84378e-08
7.90091e-07
2.50158e-08
-4.84783e-08
8.04861e-07
5.50993e-16
-4.84204e-08
8.12063e-07
-2.50158e-08
-4.84204e-08
8.12063e-07
-4.84783e-08
-4.84783e-08
8.04861e-07
-6.87301e-08
-4.84378e-08
7.90091e-07
-8.38449e-08
-4.78633e-08
7.66232e-07
-4.61838e-08
7.2836e-07
-9.09143e-08
8.33078e-08
-6.47975e-08
7.01054e-07
-8.97731e-08
6.85367e-08
-6.74744e-08
7.45075e-07
4.84378e-08
-6.85367e-08
7.73008e-07
2.50138e-08
-6.87301e-08
7.90091e-07
-1.57188e-16
-6.87268e-08
7.98329e-07
-2.50138e-08
-6.87268e-08
7.98329e-07
-4.84378e-08
-6.87301e-08
7.90091e-07
-6.85367e-08
-6.85367e-08
7.73008e-07
-8.33078e-08
-6.74744e-08
7.45075e-07
-6.47975e-08
7.01054e-07
-8.97731e-08
8.15011e-08
-7.74562e-08
6.57211e-07
-8.72417e-08
6.74744e-08
-8.15011e-08
7.10409e-07
4.78633e-08
-8.33078e-08
7.45075e-07
2.47529e-08
-8.38449e-08
7.66232e-07
-9.93449e-16
-8.40174e-08
7.76347e-07
-2.47529e-08
-8.40174e-08
7.76347e-07
-4.78633e-08
-8.38449e-08
7.66232e-07
-6.74744e-08
-8.33078e-08
7.45075e-07
-8.15011e-08
-8.15011e-08
7.10409e-07
-7.74562e-08
6.57211e-07
-8.72417e-08
7.74562e-08
5.93917e-07
-8.20176e-08
-8.20176e-08
6.47975e-08
6.57211e-07
-8.72417e-08
4.61838e-08
7.01054e-07
-8.97731e-08
2.39408e-08
7.2836e-07
-9.09143e-08
-8.05788e-16
7.41478e-07
-9.1422e-08
-2.39408e-08
7.41478e-07
-9.1422e-08
-4.61838e-08
7.2836e-07
-9.09143e-08
-6.47975e-08
7.01054e-07
-8.97731e-08
-7.74562e-08
6.57211e-07
-8.72417e-08
5.93917e-07
-8.20176e-08
-8.20176e-08
3.12558e-08
3.12558e-08
5.93026e-07
-3.08104e-08
-3.08104e-08
2.79653e-08
3.61686e-08
6.60035e-07
-3.57019e-08
2.08311e-08
3.9378e-08
7.07313e-07
-3.85024e-08
1.10973e-08
4.12577e-08
7.37165e-07
-4.0329e-08
-2.18438e-16
4.21451e-08
7.51619e-07
-4.11882e-08
-1.10973e-08
4.21451e-08
7.51619e-07
-4.11882e-08
-2.08311e-08
4.12577e-08
7.37165e-07
-4.0329e-08
-2.79653e-08
3.9378e-08
7.07313e-07
-3.85024e-08
-3.12558e-08
3.61686e-08
6.60035e-07
-3.57019e-08
3.12558e-08
5.93026e-07
-3.08104e-08
-3.08104e-08
3.61686e-08
2.79653e-08
6.60035e-07
-3.57019e-08
3.20566e-08
3.20566e-08
7.18633e-07
2.38404e-08
3.48393e-08
7.5783e-07
1.26771e-08
3.64533e-08
7.822e-07
1.02569e-15
3.71991e-08
7.9397e-07
-1.26771e-08
3.71991e-08
7.9397e-07
-2.38403e-08
3.64533e-08
7.822e-07
-3.20566e-08
3.48393e-08
7.5783e-07
-3.61686e-08
3.20566e-08
7.18633e-07
2.79653e-08
6.60035e-07
-3.57019e-08
3.9378e-08
2.08311e-08
7.07313e-07
-3.85024e-08
3.48393e-08
2.38404e-08
7.5783e-07
2.58555e-08
2.58555e-08
7.90976e-07
1.37315e-08
2.70132e-08
8.11655e-07
9.21485e-16
2.75385e-08
8.21721e-07
-1.37314e-08
2.75385e-08
8.21721e-07
-2.58555e-08
2.70132e-08
8.11655e-07
-3.48393e-08
2.58555e-08
7.90976e-07
-3.9378e-08
2.38403e-08
7.5783e-07
2.08311e-08
7.07313e-07
-3.85024e-08
4.12577e-08
1.10973e-08
7.37165e-07
-4.0329e-08
3.64533e-08
1.26771e-08
7.822e-07
2.70132e-08
1.37315e-08
8.11655e-07
1.4334e-08
1.4334e-08
8.3022e-07
6.12561e-16
1.46043e-08
8.39331e-07
-1.4334e-08
1.46043e-08
8.39331e-07
-2.70132e-08
1.4334e-08
8.3022e-07
-3.64533e-08
1.37314e-08
8.11655e-07
-4.12577e-08
1.26771e-08
7.822e-07
1.10973e-08
7.37165e-07
-4.0329e-08
4.21451e-08
7.37855e-16
7.51619e-07
-4.11882e-08
3.71991e-08
1.27451e-15
7.9397e-07
2.75385e-08
8.48544e-16
8.21721e-07
1.46043e-08
7.58518e-16
8.39331e-07
7.2659e-16
6.65233e-16
8.48012e-07
-1.46043e-08
1.25699e-15
8.48012e-07
-2.75385e-08
1.47041e-15
8.39331e-07
-3.71991e-08
8.25413e-16
8.21721e-07
-4.21451e-08
-1.40674e-15
7.9397e-07
-1.94713e-15
7.51619e-07
-4.11882e-08
4.21451e-08
-1.10973e-08
7.51619e-07
-4.11882e-08
3.71991e-08
-1.26771e-08
7.9397e-07
2.75385e-08
-1.37314e-08
8.21721e-07
1.46043e-08
-1.4334e-08
8.39331e-07
1.34884e-15
-1.46043e-08
8.48012e-07
-1.46043e-08
-1.46043e-08
8.48012e-07
-2.75385e-08
-1.4334e-08
8.39331e-07
-3.71991e-08
-1.37314e-08
8.21721e-07
-4.21451e-08
-1.26771e-08
7.9397e-07
-1.10973e-08
7.51619e-07
-4.11882e-08
4.12577e-08
-2.08311e-08
7.37165e-07
-4.0329e-08
3.64533e-08
-2.38403e-08
7.822e-07
2.70132e-08
-2.58555e-08
8.11655e-07
1.4334e-08
-2.70132e-08
8.3022e-07
1.2645e-15
-2.75385e-08
8.39331e-07
-1.4334e-08
-2.75385e-08
8.39331e-07
-2.70132e-08
-2.70132e-08
8.3022e-07
-3.64533e-08
-2.58555e-08
8.11655e-07
-4.12577e-08
-2.38404e-08
7.822e-07
-2.08311e-08
7.37165e-07
-4.0329e-08
3.9378e-08
-2.79653e-08
7.07313e-07
-3.85024e-08
3.48393e-08
-3.20566e-08
7.5783e-07
2.58555e-08
-3.48393e-08
7.90976e-07
1.37314e-08
-3.64533e-08
8.11655e-07
7.44064e-16
-3.71991e-08
8.21721e-07
-1.37314e-08
-3.71991e-08
8.21721e-07
-2.58555e-08
-3.64533e-08
8.11655e-07
-3.48393e-08
-3.48393e-08
7.90976e-07
-3.9378e-08
-3.20566e-08
7.5783e-07
-2.79653e-08
7.07313e-07
-3.85024e-08
3.61686e-08
-3.12558e-08
6.60035e-07
-3.57019e-08
3.20566e-08
-3.61686e-08
7.18633e-07
2.38403e-08
-3.9378e-08
7.5783e-07
1.26771e-08
-4.12577e-08
7.822e-07
-6.11442e-16
-4.21451e-08
7.9397e-07
-1.26771e-08
-4.21451e-08
7.9397e-07
-2.38404e-08
-4.12577e-08
7.822e-07
-3.20566e-08
-3.9378e-08
7.5783e-07
-3.61686e-08
-3.61686e-08
7.18633e-07
-3.12558e-08
6.60035e-07
-3.57019e-08
3.12558e-08
5.93026e-07
-3.08104e-08
-3.08104e-08
2.79653e-08
6.60035e-07
-3.57019e-08
2.08311e-08
7.07313e-07
-3.85024e-08
1.10973e-08
7.37165e-07
-4.0329e-08
-1.42825e-15
7.51619e-07
-4.11882e-08
-1.10973e-08
7.51619e-07
-4.11882e-08
-2.08311e-08
7.37165e-07
-4.0329e-08
-2.79653e-08
7.07313e-07
-3.85024e-08
-3.12558e-08
6.60035e-07
-3.57019e-08
5.93026e-07
-3.08104e-08
-3.08104e-08
1.26678e-08
1.26678e-08
5.91223e-07
-1.17665e-08
-1.17665e-08
1.17692e-08
1.53062e-08
6.59698e-07
-1.40713e-08
9.007e-09
1.71808e-08
7.08487e-07
-1.55928e-08
4.87672e-09
1.83777e-08
7.39548e-07
-1.66302e-08
2.4024e-16
1.89556e-08
7.54662e-07
-1.71224e-08
-4.87672e-09
1.89556e-08
7.54662e-07
-1.71224e-08
-9.007e-09
1.83777e-08
7.39548e-07
-1.66302e-08
-1.17692e-08
1.71808e-08
7.08487e-07
-1.55928e-08
-1.26678e-08
1.53062e-08
6.59698e-07
-1.40713e-08
1.26678e-08
5.91223e-07
-1.17665e-08
-1.17665e-08
1.53062e-08
1.17692e-08
6.59698e-07
-1.40713e-08
1.42125e-08
1.42125e-08
7.20821e-07
1.08871e-08
1.59823e-08
7.62354e-07
5.88833e-09
1.7083e-08
7.88493e-07
1.56884e-15
1.76091e-08
8.01205e-07
-5.88833e-09
1.76091e-08
8.01205e-07
-1.08871e-08
1.7083e-08
7.88493e-07
-1.42125e-08
1.59823e-08
7.62354e-07
-1.53062e-08
1.42125e-08
7.20821e-07
1.17692e-08
6.59698e-07
-1.40713e-08
1.71808e-08
9.007e-09
7.08487e-07
-1.55928e-08
1.59823e-08
1.08871e-08
7.62354e-07
1.22391e-08
1.22391e-08
7.98462e-07
6.61288e-09
1.30658e-08
8.21299e-07
1.32884e-15
1.34551e-08
8.32488e-07
-6.61288e-09
1.34551e-08
8.32488e-07
-1.22391e-08
1.30658e-08
8.21299e-07
-1.59823e-08
1.22391e-08
7.98462e-07
-1.71808e-08
1.08871e-08
7.62354e-07
9.007e-09
7.08487e-07
-1.55928e-08
1.83777e-08
4.87672e-09
7.39548e-07
-1.66302e-08
1.7083e-08
5.88833e-09
7.88493e-07
1.30658e-08
6.61288e-09
8.21299e-07
7.05328e-09
7.05328e-09
8.42245e-07
8.00961e-16
7.25915e-09
8.5258e-07
-7.05328e-09
7.25915e-09
8.5258e-07
-1.30658e-08
7.05328e-09
8.42245e-07
-1.7083e-08
6.61288e-09
8.21299e-07
-1.83777e-08
5.88833e-09
7.88493e-07
4.87672e-09
7.39548e-07
-1.66302e-08
1.89556e-08
5.29131e-16
7.54662e-07
-1.71224e-08
1.76091e-08
1.61837e-15
8.01205e-07
1.34551e-08
1.68894e-15
8.32488e-07
7.25915e-09
1.29371e-15
8.5258e-07
7.14546e-16
1.10783e-15
8.62531e-07
-7.25915e-09
1.05834e-15
8.62531e-07
-1.34551e-08
8.40914e-16
8.5258e-07
-1.76091e-08
1.8322e-16
8.32488e-07
-1.89556e-08
-5.6994e-16
8.01205e-07
-6.1625e-16
7.54662e-07
-1.71224e-08
1.89556e-08
-4.87672e-09
7.54662e-07
-1.71224e-08
1.76091e-08
-5.88833e-09
8.01205e-07
1.34551e-08
-6.61288e-09
8.32488e-07
7.25915e-09
-7.05328e-09
8.5258e-07
6.86624e-16
-7.25915e-09
8.62531e-07
-7.25915e-09
-7.25915e-09
8.62531e-07
-1.34551e-08
-7.05328e-09
8.5258e-07
-1.76091e-08
-6.61288e-09
8.32488e-07
-1.89556e-08
-5.88833e-09
8.01205e-07
-4.87672e-09
7.54662e-07
-1.71224e-08
1.83777e-08
-9.007e-09
7.39548e-07
-1.66302e-08
1.7083e-08
-1.08871e-08
7.88493e-07
1.30658e-08
-1.22391e-08
8.21299e-07
7.05328e-09
-1.30658e-08
8.42245e-07
5.04924e-16
-1.34551e-08
8.5258e-07
-7.05328e-09
-1.34551e-08
8.5258e-07
-1.30658e-08
-1.30658e-08
8.42245e-07
-1.7083e-08
-1.22391e-08
8.21299e-07
-1.83777e-08
-1.08871e-08
7.88493e-07
-9.007e-09
7.39548e-07
-1.66302e-08
1.71808e-08
-1.17692e-08
7.08487e-07
-1.55928e-08
1.59823e-08
-1.42125e-08
7.62354e-07
1.22391e-08
-1.59823e-08
7.98462e-07
6.61288e-09
-1.7083e-08
8.21299e-07
1.4919e-16
-1.76091e-08
8.32488e-07
-6.61288e-09
-1.76091e-08
8.32488e-07
-1.22391e-08
-1.7083e-08
8.21299e-07
-1.59823e-08
-1.59823e-08
7.98462e-07
-1.71808e-08
-1.42125e-08
7.62354e-07
-1.17692e-08
7.08487e-07
-1.55928e-08
1.53062e-08
-1.26678e-08
6.59698e-07
-1.40713e-08
1.42125e-08
-1.53062e-08
7.20821e-07
1.08871e-08
-1.71808e-08
7.62354e-07
5.88833e-09
-1.83777e-08
7.88493e-07
-8.07545e-16
-1.89556e-08
8.01205e-07
-5.88833e-09
-1.89556e-08
8.01205e-07
-1.08871e-08
-1.83777e-08
7.88493e-07
-1.42125e-08
-1.71808e-08
7.62354e-07
-1.53062e-08
-1.53062e-08
7.20821e-07
-1.26678e-08
6.59698e-07
-1.40713e-08
1.26678e-08
5.91223e-07
-1.17665e-08
-1.17665e-08
1.17692e-08
6.59698e-07
-1.40713e-08
9.007e-09
7.08487e-07
-1.55928e-08
4.87672e-09
7.39548e-07
-1.66302e-08
-4.18471e-16
7.54662e-07
-1.71224e-08
-4.87672e-09
7.54662e-07
-1.71224e-08
-9.007e-09
7.39548e-07
-1.66302e-08
-1.17692e-08
7.08487e-07
-1.55928e-08
-1.26678e-08
6.59698e-07
-1.40713e-08
5.91223e-07
-1.17665e-08
-1.17665e-08
4.25971e-09
4.25972e-09
5.89882e-07
-3.58916e-09
-3.58916e-09
4.23329e-09
5.59438e-09
6.5878e-07
-4.64951e-09
3.38235e-09
6.60224e-09
7.0814e-07
-5.40379e-09
1.87756e-09
7.28065e-09
7.39718e-07
-5.94539e-09
3.69045e-16
7.61451e-09
7.55131e-07
-6.20562e-09
-1.87756e-09
7.61451e-09
7.55131e-07
-6.20562e-09
-3.38235e-09
7.28065e-09
7.39718e-07
-5.94539e-09
-4.23329e-09
6.60224e-09
7.0814e-07
-5.40379e-09
-4.25972e-09
5.59438e-09
6.5878e-07
-4.64951e-09
4.25972e-09
5.89882e-07
-3.58916e-09
-3.58916e-09
5.59438e-09
4.23329e-09
6.5878e-07
-4.64951e-09
5.54684e-09
5.54684e-09
7.20916e-07
4.42357e-09
6.54882e-09
7.63531e-07
2.4465e-09
7.20177e-09
7.90549e-07
5.01033e-16
7.52084e-09
8.03745e-07
-2.4465e-09
7.52084e-09
8.03745e-07
-4.42357e-09
7.20177e-09
7.90549e-07
-5.54684e-09
6.54882e-09
7.63531e-07
-5.59438e-09
5.54684e-09
7.20916e-07
4.23329e-09
6.5878e-07
-4.64951e-09
6.60224e-09
3.38235e-09
7.0814e-07
-5.40379e-09
6.54882e-09
4.42358e-09
7.63531e-07
5.21218e-09
5.21218e-09
8.01135e-07
2.87528e-09
5.71585e-09
8.25122e-07
3.86683e-16
5.95886e-09
8.36925e-07
-2.87528e-09
5.95886e-09
8.36925e-07
-5.21218e-09
5.71585e-09
8.25122e-07
-6.54882e-09
5.21218e-09
8.01135e-07
-6.60224e-09
4.42357e-09
7.63531e-07
3.38235e-09
7.0814e-07
-5.40379e-09
7.28065e-09
1.87756e-09
7.39718e-07
-5.94539e-09
7.20177e-09
2.4465e-09
7.90549e-07
5.71585e-09
2.87528e-09
8.25122e-07
3.14709e-09
3.14709e-09
8.47382e-07
4.52084e-16
3.27732e-09
8.58409e-07
-3.14708e-09
3.27732e-09
8.58409e-07
-5.71585e-09
3.14709e-09
8.47382e-07
-7.20177e-09
2.87528e-09
8.25122e-07
-7.28065e-09
2.4465e-09
7.90549e-07
1.87756e-09
7.39718e-07
-5.94539e-09
7.61451e-09
4.32599e-16
7.55131e-07
-6.20562e-09
7.52084e-09
5.05669e-16
8.03745e-07
5.95886e-09
2.93235e-16
8.36925e-07
3.27732e-09
4.88424e-16
8.58409e-07
5.8194e-16
6.29087e-16
8.69085e-07
-3.27732e-09
8.49266e-16
8.69085e-07
-5.95886e-09
1.02514e-15
8.58409e-07
-7.52084e-09
7.32084e-16
8.36925e-07
-7.61451e-09
-9.45538e-17
8.03745e-07
-2.66697e-16
7.55131e-07
-6.20561e-09
7.61451e-09
-1.87756e-09
7.55131e-07
-6.20562e-09
7.52084e-09
-2.4465e-09
8.03745e-07
5.95886e-09
-2.87528e-09
8.36925e-07
3.27732e-09
-3.14708e-09
8.58409e-07
9.28024e-16
-3.27732e-09
8.69085e-07
-3.27732e-09
-3.27731e-09
8.69085e-07
-5.95886e-09
-3.14708e-09
8.58409e-07
-7.52084e-09
-2.87528e-09
8.36925e-07
-7.61451e-09
-2.4465e-09
8.03745e-07
-1.87756e-09
7.55131e-07
-6.20561e-09
7.28065e-09
-3.38235e-09
7.39718e-07
-5.94539e-09
7.20177e-09
-4.42357e-09
7.90549e-07
5.71585e-09
-5.21218e-09
8.25122e-07
3.14709e-09
-5.71585e-09
8.47382e-07
1.02765e-15
-5.95886e-09
8.58409e-07
-3.14708e-09
-5.95886e-09
8.58409e-07
-5.71585e-09
-5.71585e-09
8.47382e-07
-7.20177e-09
-5.21217e-09
8.25122e-07
-7.28065e-09
-4.42358e-09
7.90549e-07
-3.38235e-09
7.39718e-07
-5.94539e-09
6.60224e-09
-4.23329e-09
7.0814e-07
-5.40379e-09
6.54882e-09
-5.54684e-09
7.63531e-07
5.21218e-09
-6.54882e-09
8.01135e-07
2.87528e-09
-7.20177e-09
8.25122e-07
5.01678e-16
-7.52084e-09
8.36925e-07
-2.87528e-09
-7.52084e-09
8.36925e-07
-5.21218e-09
-7.20177e-09
8.25122e-07
-6.54882e-09
-6.54882e-09
8.01135e-07
-6.60224e-09
-5.54684e-09
7.63531e-07
-4.23329e-09
7.0814e-07
-5.40379e-09
5.59438e-09
-4.25972e-09
6.5878e-07
-4.64951e-09
5.54684e-09
-5.59438e-09
7.20916e-07
4.42357e-09
-6.60224e-09
7.63531e-07
2.4465e-09
-7.28065e-09
7.90549e-07
-2.24503e-16
-7.61451e-09
8.03745e-07
-2.4465e-09
-7.61451e-09
8.03745e-07
-4.42358e-09
-7.28065e-09
7.90549e-07
-5.54684e-09
-6.60224e-09
7.63531e-07
-5.59438e-09
-5.59439e-09
7.20916e-07
-4.25972e-09
6.5878e-07
-4.64951e-09
4.25971e-09
5.89882e-07
-3.58916e-09
-3.58916e-09
4.23329e-09
6.5878e-07
-4.64951e-09
3.38235e-09
7.0814e-07
-5.40379e-09
1.87756e-09
7.39718e-07
-5.94539e-09
-4.13087e-16
7.55131e-07
-6.20561e-09
-1.87756e-09
7.55131e-07
-6.20561e-09
-3.38235e-09
7.39718e-07
-5.94539e-09
-4.23329e-09
7.0814e-07
-5.40379e-09
-4.25972e-09
6.5878e-07
-4.64951e-09
5.89882e-07
-3.58916e-09
-3.58916e-09
1.15271e-09
1.15271e-09
5.89277e-07
-8.4997e-10
-8.4997e-10
1.25106e-09
1.70014e-09
6.58228e-07
-1.24664e-09
1.05188e-09
2.14035e-09
7.07741e-07
-1.54274e-09
6.01003e-10
2.45457e-09
7.39487e-07
-1.77268e-09
4.03372e-16
2.61222e-09
7.55004e-07
-1.88442e-09
-6.01003e-10
2.61223e-09
7.55004e-07
-1.88442e-09
-1.05188e-09
2.45457e-09
7.39487e-07
-1.77268e-09
-1.25106e-09
2.14035e-09
7.07741e-07
-1.54274e-09
-1.15271e-09
1.70013e-09
6.58228e-07
-1.24664e-09
1.15271e-09
5.89277e-07
-8.4997e-10
-8.49968e-10
1.70014e-09
1.25106e-09
6.58228e-07
-1.24664e-09
1.82226e-09
1.82226e-09
7.20672e-07
1.52153e-09
2.2866e-09
7.63685e-07
8.62912e-10
2.60572e-09
7.91057e-07
7.66325e-16
2.76546e-09
8.04455e-07
-8.62911e-10
2.76547e-09
8.04455e-07
-1.52153e-09
2.60572e-09
7.91057e-07
-1.82226e-09
2.2866e-09
7.63685e-07
-1.70013e-09
1.82226e-09
7.20672e-07
1.25106e-09
6.58228e-07
-1.24664e-09
2.14035e-09
1.05188e-09
7.07741e-07
-1.54275e-09
2.2866e-09
1.52153e-09
7.63685e-07
1.90016e-09
1.90016e-09
8.01908e-07
1.0727e-09
2.15478e-09
8.264e-07
7.975e-16
2.28106e-09
8.38482e-07
-1.0727e-09
2.28106e-09
8.38482e-07
-1.90016e-09
2.15478e-09
8.264e-07
-2.2866e-09
1.90016e-09
8.01908e-07
-2.14035e-09
1.52153e-09
7.63685e-07
1.05188e-09
7.07741e-07
-1.54274e-09
2.45457e-09
6.01004e-10
7.39487e-07
-1.77268e-09
2.60572e-09
8.62913e-10
7.91057e-07
2.15478e-09
1.0727e-09
8.264e-07
1.2126e-09
1.2126e-09
8.49267e-07
7.13481e-16
1.28164e-09
8.60621e-07
-1.2126e-09
1.28164e-09
8.60621e-07
-2.15478e-09
1.2126e-09
8.49267e-07
-2.60572e-09
1.0727e-09
8.264e-07
-2.45457e-09
8.62911e-10
7.91057e-07
6.01003e-10
7.39487e-07
-1.77268e-09
2.61223e-09
5.23282e-16
7.55004e-07
-1.88442e-09
2.76546e-09
9.97734e-16
8.04455e-07
2.28106e-09
9.61616e-16
8.38482e-07
1.28164e-09
9.28773e-16
8.60621e-07
7.12908e-16
9.36039e-16
8.71648e-07
-1.28164e-09
1.00473e-15
8.71648e-07
-2.28106e-09
7.94101e-16
8.60621e-07
-2.76546e-09
6.00428e-16
8.38482e-07
-2.61222e-09
1.34324e-16
8.04455e-07
1.76174e-16
7.55004e-07
-1.88442e-09
2.61223e-09
-6.01003e-10
7.55004e-07
-1.88442e-09
2.76546e-09
-8.6291e-10
8.04455e-07
2.28106e-09
-1.0727e-09
8.38482e-07
1.28164e-09
-1.2126e-09
8.60621e-07
8.37862e-16
-1.28164e-09
8.71648e-07
-1.28164e-09
-1.28164e-09
8.71648e-07
-2.28106e-09
-1.2126e-09
8.60621e-07
-2.76546e-09
-1.0727e-09
8.38482e-07
-2.61222e-09
-8.62911e-10
8.04455e-07
-6.01002e-10
7.55004e-07
-1.88442e-09
2.45457e-09
-1.05188e-09
7.39487e-07
-1.77268e-09
2.60572e-09
-1.52153e-09
7.91057e-07
2.15478e-09
-1.90016e-09
8.264e-07
1.2126e-09
-2.15478e-09
8.49267e-07
7.79165e-16
-2.28106e-09
8.60621e-07
-1.2126e-09
-2.28106e-09
8.60621e-07
-2.15478e-09
-2.15478e-09
8.49267e-07
-2.60572e-09
-1.90016e-09
8.264e-07
-2.45457e-09
-1.52153e-09
7.91057e-07
-1.05188e-09
7.39487e-07
-1.77268e-09
2.14035e-09
-1.25106e-09
7.07741e-07
-1.54274e-09
2.2866e-09
-1.82226e-09
7.63685e-07
1.90016e-09
-2.2866e-09
8.01908e-07
1.0727e-09
-2.60572e-09
8.264e-07
6.40083e-16
-2.76546e-09
8.38482e-07
-1.0727e-09
-2.76546e-09
8.38482e-07
-1.90016e-09
-2.60572e-09
8.264e-07
-2.2866e-09
-2.2866e-09
8.01908e-07
-2.14035e-09
-1.82226e-09
7.63685e-07
-1.25106e-09
7.07741e-07
-1.54274e-09
1.70013e-09
-1.15271e-09
6.58228e-07
-1.24664e-09
1.82226e-09
-1.70013e-09
7.20672e-07
1.52153e-09
-2.14035e-09
7.63685e-07
8.62911e-10
-2.45457e-09
7.91057e-07
4.99695e-16
-2.61222e-09
8.04455e-07
-8.6291e-10
-2.61222e-09
8.04455e-07
-1.52153e-09
-2.45457e-09
7.91057e-07
-1.82226e-09
-2.14035e-09
7.63685e-07
-1.70013e-09
-1.70013e-09
7.20672e-07
-1.15271e-09
6.58228e-07
-1.24664e-09
1.15271e-09
5.89277e-07
-8.4997e-10
-8.4997e-10
1.25106e-09
6.58228e-07
-1.24664e-09
1.05188e-09
7.07741e-07
-1.54274e-09
6.01003e-10
7.39487e-07
-1.77268e-09
3.29467e-16
7.55004e-07
-1.88442e-09
-6.01003e-10
7.55004e-07
-1.88442e-09
-1.05188e-09
7.39487e-07
-1.77268e-09
-1.25106e-09
7.07741e-07
-1.54274e-09
-1.15271e-09
6.58228e-07
-1.24664e-09
5.89277e-07
-8.4997e-10
-8.49969e-10
2.6656e-10
2.66559e-10
5.8905e-07
-1.53063e-10
-1.53063e-10
3.26173e-10
4.57199e-10
6.57992e-07
-2.81044e-10
2.91703e-10
6.17779e-10
7.07539e-07
-3.80959e-10
1.72206e-10
7.38078e-10
7.39331e-07
-4.62783e-10
7.10985e-17
7.99111e-10
7.5488e-07
-5.02413e-10
-1.72206e-10
7.99111e-10
7.5488e-07
-5.02413e-10
-2.91703e-10
7.38078e-10
7.39331e-07
-4.62782e-10
-3.26173e-10
6.1778e-10
7.07539e-07
-3.80958e-10
-2.66561e-10
4.57201e-10
6.57992e-07
-2.81044e-10
2.6656e-10
5.8905e-07
-1.53065e-10
-1.53064e-10
4.572e-10
3.26172e-10
6.57992e-07
-2.81044e-10
5.35448e-10
5.35448e-10
7.20515e-07
4.68728e-10
7.13755e-10
7.63656e-07
2.72533e-10
8.41818e-10
7.91149e-07
4.03226e-17
9.07059e-10
8.04619e-07
-2.72532e-10
9.07058e-10
8.04619e-07
-4.68728e-10
8.41818e-10
7.91149e-07
-5.35449e-10
7.13756e-10
7.63656e-07
-4.572e-10
5.3545e-10
7.20515e-07
3.26172e-10
6.57992e-07
-2.81044e-10
6.17778e-10
2.91703e-10
7.07539e-07
-3.80958e-10
7.13754e-10
4.68728e-10
7.63656e-07
6.18836e-10
6.18837e-10
8.02098e-07
3.57145e-10
7.24265e-10
8.26779e-07
4.05991e-17
7.77663e-10
8.38969e-07
-3.57145e-10
7.77663e-10
8.38969e-07
-6.18837e-10
7.24265e-10
8.26779e-07
-7.13755e-10
6.18837e-10
8.02098e-07
-6.17779e-10
4.68729e-10
7.63656e-07
2.91703e-10
7.07539e-07
-3.80958e-10
7.38077e-10
1.72206e-10
7.39331e-07
-4.62782e-10
8.41817e-10
2.72532e-10
7.91149e-07
7.24264e-10
3.57145e-10
8.26779e-07
4.161e-10
4.161e-10
8.49883e-07
2.96884e-16
4.4587e-10
8.61369e-07
-4.161e-10
4.4587e-10
8.61369e-07
-7.24264e-10
4.161e-10
8.49883e-07
-8.41817e-10
3.57145e-10
8.26779e-07