/*--------------------------------*- C++ -*----------------------------------*\
| =========                 |                                                 |
| \\      /  F ield         | OpenFOAM: The Open Source CFD Toolbox           |
|  \\    /   O peration     | Version:  2412                                  |
|   \\  /    A nd           | Website:  www.openfoam.com                      |
|    \\/     M anipulation  |                                                 |
\*---------------------------------------------------------------------------*/
FoamFile
{
    version     2.0;
    format      ascii;
    arch        "LSB;label=32;scalar=64";
    class       volVectorField;
    location    "5.5";
    object      U;
}
// * * * * * * * * * * * * * * * * * * * * * * * * * * * * * * * * * * * * * //

dimensions      [0 1 -1 0 0 0 0];

internalField   nonuniform List<vector> 
15000
(
(0.00122141 0.00122141 0.0104442)
(0.000904313 0.0011468 0.0104158)
(0.000617268 0.00112196 0.010386)
(0.000362583 0.00109649 0.0103635)
(0.00011911 0.00108459 0.0103521)
(-0.00011911 0.00108459 0.0103521)
(-0.000362583 0.00109649 0.0103635)
(-0.000617268 0.00112196 0.010386)
(-0.000904313 0.0011468 0.0104158)
(-0.00122141 0.00122141 0.0104442)
(0.0011468 0.000904313 0.0104158)
(0.000854612 0.000854612 0.010368)
(0.000584927 0.00081777 0.0103287)
(0.000340903 0.00079101 0.0103025)
(0.000111787 0.000777839 0.0102896)
(-0.000111787 0.000777839 0.0102896)
(-0.000340903 0.00079101 0.0103025)
(-0.000584927 0.00081777 0.0103287)
(-0.000854612 0.000854612 0.010368)
(-0.0011468 0.000904313 0.0104158)
(0.00112196 0.000617268 0.010386)
(0.00081777 0.000584927 0.0103287)
(0.000554668 0.000554668 0.0102865)
(0.000321054 0.000532371 0.0102592)
(0.000104984 0.000521057 0.0102458)
(-0.000104984 0.000521057 0.0102458)
(-0.000321054 0.000532371 0.0102592)
(-0.000554668 0.000554668 0.0102865)
(-0.00081777 0.000584927 0.0103287)
(-0.00112196 0.000617268 0.010386)
(0.00109649 0.000362583 0.0103635)
(0.00079101 0.000340903 0.0103025)
(0.000532371 0.000321054 0.0102592)
(0.00030647 0.00030647 0.0102314)
(9.99717e-05 0.000299013 0.0102177)
(-9.99717e-05 0.000299013 0.0102177)
(-0.00030647 0.00030647 0.0102314)
(-0.000532371 0.000321054 0.0102592)
(-0.00079101 0.000340903 0.0103025)
(-0.00109649 0.000362583 0.0103635)
(0.00108459 0.00011911 0.0103521)
(0.000777839 0.000111787 0.0102896)
(0.000521057 0.000104984 0.0102458)
(0.000299013 9.99717e-05 0.0102177)
(9.7403e-05 9.7403e-05 0.0102039)
(-9.7403e-05 9.7403e-05 0.0102039)
(-0.000299013 9.99717e-05 0.0102177)
(-0.000521057 0.000104984 0.0102458)
(-0.000777839 0.000111787 0.0102896)
(-0.00108459 0.00011911 0.0103521)
(0.00108459 -0.00011911 0.0103521)
(0.000777839 -0.000111787 0.0102896)
(0.000521057 -0.000104984 0.0102458)
(0.000299013 -9.99717e-05 0.0102177)
(9.7403e-05 -9.7403e-05 0.0102039)
(-9.7403e-05 -9.7403e-05 0.0102039)
(-0.000299013 -9.99717e-05 0.0102177)
(-0.000521057 -0.000104984 0.0102458)
(-0.000777839 -0.000111787 0.0102896)
(-0.00108459 -0.00011911 0.0103521)
(0.00109649 -0.000362583 0.0103635)
(0.00079101 -0.000340903 0.0103025)
(0.000532371 -0.000321054 0.0102592)
(0.00030647 -0.00030647 0.0102314)
(9.99717e-05 -0.000299013 0.0102177)
(-9.99717e-05 -0.000299013 0.0102177)
(-0.00030647 -0.00030647 0.0102314)
(-0.000532371 -0.000321054 0.0102592)
(-0.00079101 -0.000340903 0.0103025)
(-0.00109649 -0.000362583 0.0103635)
(0.00112196 -0.000617268 0.010386)
(0.00081777 -0.000584927 0.0103287)
(0.000554668 -0.000554668 0.0102865)
(0.000321054 -0.000532371 0.0102592)
(0.000104984 -0.000521057 0.0102458)
(-0.000104984 -0.000521057 0.0102458)
(-0.000321054 -0.000532371 0.0102592)
(-0.000554668 -0.000554668 0.0102865)
(-0.00081777 -0.000584927 0.0103287)
(-0.00112196 -0.000617268 0.010386)
(0.0011468 -0.000904313 0.0104158)
(0.000854612 -0.000854612 0.010368)
(0.000584927 -0.00081777 0.0103287)
(0.000340903 -0.00079101 0.0103025)
(0.000111787 -0.000777839 0.0102896)
(-0.000111787 -0.000777839 0.0102896)
(-0.000340903 -0.00079101 0.0103025)
(-0.000584927 -0.00081777 0.0103287)
(-0.000854612 -0.000854612 0.010368)
(-0.0011468 -0.000904313 0.0104158)
(0.00122141 -0.00122141 0.0104442)
(0.000904313 -0.0011468 0.0104158)
(0.000617268 -0.00112196 0.010386)
(0.000362583 -0.00109649 0.0103635)
(0.00011911 -0.00108459 0.0103521)
(-0.00011911 -0.00108459 0.0103521)
(-0.000362583 -0.00109649 0.0103635)
(-0.000617268 -0.00112196 0.010386)
(-0.000904313 -0.0011468 0.0104158)
(-0.00122141 -0.00122141 0.0104442)
(0.000726052 0.000726052 0.0126229)
(0.000574103 0.000765779 0.0125984)
(0.00040851 0.000790647 0.0125115)
(0.000244502 0.000801565 0.012426)
(8.09847e-05 0.000807057 0.012377)
(-8.09847e-05 0.000807057 0.012377)
(-0.000244502 0.000801565 0.012426)
(-0.00040851 0.000790647 0.0125115)
(-0.000574103 0.000765779 0.0125984)
(-0.000726052 0.000726052 0.0126229)
(0.000765779 0.000574103 0.0125984)
(0.000595748 0.000595748 0.0124467)
(0.000419622 0.000604858 0.0122699)
(0.00024881 0.000607187 0.0121341)
(8.22746e-05 0.000608142 0.0120629)
(-8.22746e-05 0.000608142 0.0120629)
(-0.00024881 0.000607187 0.0121341)
(-0.000419622 0.000604858 0.0122699)
(-0.000595748 0.000595748 0.0124467)
(-0.000765779 0.000574103 0.0125984)
(0.000790647 0.00040851 0.0125115)
(0.000604858 0.000419622 0.0122699)
(0.000422677 0.000422677 0.012044)
(0.000249406 0.000422547 0.0118848)
(8.23777e-05 0.000422267 0.0118045)
(-8.23777e-05 0.000422267 0.0118045)
(-0.000249406 0.000422547 0.0118848)
(-0.000422677 0.000422677 0.012044)
(-0.000604858 0.000419622 0.0122699)
(-0.000790647 0.00040851 0.0125115)
(0.000801565 0.000244502 0.012426)
(0.000607187 0.00024881 0.0121341)
(0.000422547 0.000249406 0.0118848)
(0.000248828 0.000248828 0.0117163)
(8.21501e-05 0.000248428 0.011633)
(-8.21501e-05 0.000248428 0.011633)
(-0.000248828 0.000248828 0.0117163)
(-0.000422547 0.000249406 0.0118848)
(-0.000607187 0.00024881 0.0121341)
(-0.000801565 0.000244502 0.012426)
(0.000807057 8.09847e-05 0.012377)
(0.000608142 8.22746e-05 0.0120629)
(0.000422267 8.23777e-05 0.0118045)
(0.000248428 8.21501e-05 0.011633)
(8.20004e-05 8.20004e-05 0.0115489)
(-8.20004e-05 8.20004e-05 0.0115489)
(-0.000248428 8.21501e-05 0.011633)
(-0.000422267 8.23777e-05 0.0118045)
(-0.000608142 8.22746e-05 0.0120629)
(-0.000807057 8.09847e-05 0.012377)
(0.000807057 -8.09847e-05 0.012377)
(0.000608142 -8.22746e-05 0.0120629)
(0.000422267 -8.23777e-05 0.0118045)
(0.000248428 -8.21501e-05 0.011633)
(8.20004e-05 -8.20004e-05 0.0115489)
(-8.20004e-05 -8.20004e-05 0.0115489)
(-0.000248428 -8.21501e-05 0.011633)
(-0.000422267 -8.23777e-05 0.0118045)
(-0.000608142 -8.22746e-05 0.0120629)
(-0.000807057 -8.09847e-05 0.012377)
(0.000801565 -0.000244502 0.012426)
(0.000607187 -0.00024881 0.0121341)
(0.000422547 -0.000249406 0.0118848)
(0.000248828 -0.000248828 0.0117163)
(8.21501e-05 -0.000248428 0.011633)
(-8.21501e-05 -0.000248428 0.011633)
(-0.000248828 -0.000248828 0.0117163)
(-0.000422547 -0.000249406 0.0118848)
(-0.000607187 -0.00024881 0.0121341)
(-0.000801565 -0.000244502 0.012426)
(0.000790647 -0.00040851 0.0125115)
(0.000604858 -0.000419622 0.0122699)
(0.000422677 -0.000422677 0.012044)
(0.000249406 -0.000422547 0.0118848)
(8.23777e-05 -0.000422267 0.0118045)
(-8.23777e-05 -0.000422267 0.0118045)
(-0.000249406 -0.000422547 0.0118848)
(-0.000422677 -0.000422677 0.012044)
(-0.000604858 -0.000419622 0.0122699)
(-0.000790647 -0.00040851 0.0125115)
(0.000765779 -0.000574103 0.0125984)
(0.000595748 -0.000595748 0.0124467)
(0.000419622 -0.000604858 0.0122699)
(0.00024881 -0.000607187 0.0121341)
(8.22746e-05 -0.000608142 0.0120629)
(-8.22746e-05 -0.000608142 0.0120629)
(-0.00024881 -0.000607187 0.0121341)
(-0.000419622 -0.000604858 0.0122699)
(-0.000595748 -0.000595748 0.0124467)
(-0.000765779 -0.000574103 0.0125984)
(0.000726052 -0.000726052 0.0126229)
(0.000574103 -0.000765779 0.0125984)
(0.00040851 -0.000790647 0.0125115)
(0.000244502 -0.000801565 0.012426)
(8.09847e-05 -0.000807057 0.012377)
(-8.09847e-05 -0.000807057 0.012377)
(-0.000244502 -0.000801565 0.012426)
(-0.00040851 -0.000790647 0.0125115)
(-0.000574103 -0.000765779 0.0125984)
(-0.000726052 -0.000726052 0.0126229)
(0.000476828 0.000476828 0.0124965)
(0.000399668 0.000535159 0.0127128)
(0.000300951 0.000575944 0.0127718)
(0.000186448 0.000600886 0.0127668)
(6.28731e-05 0.000613318 0.0127533)
(-6.28731e-05 0.000613318 0.0127533)
(-0.000186448 0.000600886 0.0127668)
(-0.000300951 0.000575944 0.0127718)
(-0.000399668 0.000535159 0.0127128)
(-0.000476828 0.000476828 0.0124965)
(0.000535159 0.000399668 0.0127128)
(0.000448294 0.000448294 0.0127711)
(0.000334829 0.000479962 0.0127082)
(0.000206404 0.00049843 0.0126319)
(6.95799e-05 0.00050733 0.0125866)
(-6.95799e-05 0.00050733 0.0125866)
(-0.000206404 0.00049843 0.0126319)
(-0.000334829 0.000479962 0.0127082)
(-0.000448294 0.000448294 0.0127711)
(-0.000535159 0.000399668 0.0127128)
(0.000575944 0.000300951 0.0127718)
(0.000479962 0.000334829 0.0127082)
(0.000357012 0.000357012 0.012573)
(0.000219429 0.000369876 0.0124608)
(7.39333e-05 0.000375947 0.0124012)
(-7.39333e-05 0.000375947 0.0124012)
(-0.000219429 0.000369876 0.0124608)
(-0.000357012 0.000357012 0.012573)
(-0.000479962 0.000334829 0.0127082)
(-0.000575944 0.000300951 0.0127718)
(0.000600886 0.000186448 0.0127668)
(0.00049843 0.000206404 0.0126319)
(0.000369876 0.000219429 0.0124608)
(0.000227004 0.000227004 0.0123336)
(7.64586e-05 0.000230538 0.0122688)
(-7.64586e-05 0.000230538 0.0122688)
(-0.000227004 0.000227004 0.0123336)
(-0.000369876 0.000219429 0.0124608)
(-0.00049843 0.000206404 0.0126319)
(-0.000600886 0.000186448 0.0127668)
(0.000613318 6.28731e-05 0.0127533)
(0.00050733 6.95799e-05 0.0125866)
(0.000375947 7.39333e-05 0.0124012)
(0.000230538 7.64586e-05 0.0122688)
(7.76276e-05 7.76276e-05 0.0122025)
(-7.76276e-05 7.76276e-05 0.0122025)
(-0.000230538 7.64586e-05 0.0122688)
(-0.000375947 7.39333e-05 0.0124012)
(-0.00050733 6.95799e-05 0.0125866)
(-0.000613318 6.28731e-05 0.0127533)
(0.000613318 -6.28731e-05 0.0127533)
(0.00050733 -6.95799e-05 0.0125866)
(0.000375947 -7.39333e-05 0.0124012)
(0.000230538 -7.64586e-05 0.0122688)
(7.76276e-05 -7.76276e-05 0.0122025)
(-7.76276e-05 -7.76276e-05 0.0122025)
(-0.000230538 -7.64586e-05 0.0122688)
(-0.000375947 -7.39333e-05 0.0124012)
(-0.00050733 -6.95799e-05 0.0125866)
(-0.000613318 -6.28731e-05 0.0127533)
(0.000600886 -0.000186448 0.0127668)
(0.00049843 -0.000206404 0.0126319)
(0.000369876 -0.000219429 0.0124608)
(0.000227004 -0.000227004 0.0123336)
(7.64586e-05 -0.000230538 0.0122688)
(-7.64586e-05 -0.000230538 0.0122688)
(-0.000227004 -0.000227004 0.0123336)
(-0.000369876 -0.000219429 0.0124608)
(-0.00049843 -0.000206404 0.0126319)
(-0.000600886 -0.000186448 0.0127668)
(0.000575944 -0.000300951 0.0127718)
(0.000479962 -0.000334829 0.0127082)
(0.000357012 -0.000357012 0.012573)
(0.000219429 -0.000369876 0.0124608)
(7.39333e-05 -0.000375947 0.0124012)
(-7.39333e-05 -0.000375947 0.0124012)
(-0.000219429 -0.000369876 0.0124608)
(-0.000357012 -0.000357012 0.012573)
(-0.000479962 -0.000334829 0.0127082)
(-0.000575944 -0.000300951 0.0127718)
(0.000535159 -0.000399668 0.0127128)
(0.000448294 -0.000448294 0.0127711)
(0.000334829 -0.000479962 0.0127082)
(0.000206404 -0.00049843 0.0126319)
(6.95799e-05 -0.00050733 0.0125866)
(-6.95799e-05 -0.00050733 0.0125866)
(-0.000206404 -0.00049843 0.0126319)
(-0.000334829 -0.000479962 0.0127082)
(-0.000448294 -0.000448294 0.0127711)
(-0.000535159 -0.000399668 0.0127128)
(0.000476828 -0.000476828 0.0124965)
(0.000399668 -0.000535159 0.0127128)
(0.000300951 -0.000575944 0.0127718)
(0.000186448 -0.000600886 0.0127668)
(6.28731e-05 -0.000613318 0.0127533)
(-6.28731e-05 -0.000613318 0.0127533)
(-0.000186448 -0.000600886 0.0127668)
(-0.000300951 -0.000575944 0.0127718)
(-0.000399668 -0.000535159 0.0127128)
(-0.000476828 -0.000476828 0.0124965)
(0.000186765 0.000186765 0.0126726)
(0.000166546 0.000230685 0.0129852)
(0.00013335 0.000262715 0.0131152)
(8.54641e-05 0.000284872 0.0131555)
(2.93309e-05 0.000296061 0.0131637)
(-2.93309e-05 0.000296061 0.0131637)
(-8.54641e-05 0.000284872 0.0131555)
(-0.00013335 0.000262715 0.0131152)
(-0.000166546 0.000230685 0.0129852)
(-0.000186765 0.000186765 0.0126726)
(0.000230685 0.000166546 0.0129852)
(0.000207644 0.000207644 0.0131538)
(0.00016431 0.000237973 0.0131655)
(0.000105043 0.000257837 0.0131348)
(3.60445e-05 0.000267755 0.013111)
(-3.60444e-05 0.000267755 0.013111)
(-0.000105043 0.000257837 0.0131348)
(-0.00016431 0.000237973 0.0131655)
(-0.000207644 0.000207644 0.0131538)
(-0.000230685 0.000166546 0.0129852)
(0.000262715 0.00013335 0.0131152)
(0.000237973 0.00016431 0.0131655)
(0.000187943 0.000187943 0.013104)
(0.000119904 0.000203317 0.0130358)
(4.11273e-05 0.000210922 0.0129967)
(-4.11273e-05 0.000210922 0.0129967)
(-0.000119904 0.000203317 0.0130358)
(-0.000187943 0.000187943 0.013104)
(-0.000237973 0.00016431 0.0131655)
(-0.000262715 0.00013335 0.0131152)
(0.000284872 8.54641e-05 0.0131555)
(0.000257837 0.000105043 0.0131348)
(0.000203317 0.000119904 0.0130358)
(0.000129546 0.000129546 0.0129508)
(4.44158e-05 0.000134282 0.0129055)
(-4.44158e-05 0.000134282 0.0129055)
(-0.000129546 0.000129546 0.0129508)
(-0.000203317 0.000119904 0.0130358)
(-0.000257837 0.000105043 0.0131348)
(-0.000284872 8.54641e-05 0.0131555)
(0.000296061 2.93309e-05 0.0131637)
(0.000267755 3.60445e-05 0.013111)
(0.000210922 4.11273e-05 0.0129967)
(0.000134282 4.44158e-05 0.0129055)
(4.60241e-05 4.6024e-05 0.0128581)
(-4.6024e-05 4.60241e-05 0.0128581)
(-0.000134282 4.44158e-05 0.0129055)
(-0.000210922 4.11273e-05 0.0129967)
(-0.000267755 3.60444e-05 0.013111)
(-0.000296061 2.93309e-05 0.0131637)
(0.000296061 -2.93309e-05 0.0131637)
(0.000267755 -3.60444e-05 0.013111)
(0.000210922 -4.11273e-05 0.0129967)
(0.000134282 -4.44158e-05 0.0129055)
(4.60241e-05 -4.6024e-05 0.0128581)
(-4.6024e-05 -4.6024e-05 0.0128581)
(-0.000134282 -4.44158e-05 0.0129055)
(-0.000210922 -4.11273e-05 0.0129967)
(-0.000267755 -3.60445e-05 0.013111)
(-0.000296061 -2.93309e-05 0.0131637)
(0.000284872 -8.54641e-05 0.0131555)
(0.000257837 -0.000105043 0.0131348)
(0.000203317 -0.000119904 0.0130358)
(0.000129546 -0.000129546 0.0129508)
(4.44158e-05 -0.000134282 0.0129055)
(-4.44158e-05 -0.000134282 0.0129055)
(-0.000129546 -0.000129546 0.0129508)
(-0.000203317 -0.000119904 0.0130358)
(-0.000257837 -0.000105043 0.0131348)
(-0.000284872 -8.54641e-05 0.0131555)
(0.000262715 -0.00013335 0.0131152)
(0.000237973 -0.00016431 0.0131655)
(0.000187943 -0.000187943 0.013104)
(0.000119904 -0.000203317 0.0130358)
(4.11273e-05 -0.000210922 0.0129967)
(-4.11273e-05 -0.000210922 0.0129967)
(-0.000119904 -0.000203317 0.0130358)
(-0.000187943 -0.000187943 0.013104)
(-0.000237973 -0.00016431 0.0131655)
(-0.000262715 -0.00013335 0.0131152)
(0.000230685 -0.000166546 0.0129852)
(0.000207644 -0.000207644 0.0131538)
(0.00016431 -0.000237973 0.0131655)
(0.000105043 -0.000257837 0.0131348)
(3.60444e-05 -0.000267755 0.013111)
(-3.60445e-05 -0.000267755 0.013111)
(-0.000105043 -0.000257837 0.0131348)
(-0.00016431 -0.000237973 0.0131655)
(-0.000207644 -0.000207644 0.0131538)
(-0.000230685 -0.000166546 0.0129852)
(0.000186765 -0.000186765 0.0126726)
(0.000166546 -0.000230685 0.0129852)
(0.00013335 -0.000262715 0.0131152)
(8.54641e-05 -0.000284872 0.0131555)
(2.93309e-05 -0.000296061 0.0131637)
(-2.93309e-05 -0.000296061 0.0131637)
(-8.54641e-05 -0.000284872 0.0131555)
(-0.00013335 -0.000262715 0.0131152)
(-0.000166546 -0.000230685 0.0129852)
(-0.000186765 -0.000186765 0.0126726)
(7.48249e-05 7.48249e-05 0.0126043)
(6.88839e-05 9.54672e-05 0.0129711)
(5.74326e-05 0.000111687 0.0131476)
(3.76061e-05 0.000123495 0.013221)
(1.30503e-05 0.000129535 0.0132463)
(-1.30503e-05 0.000129535 0.0132463)
(-3.76061e-05 0.000123495 0.013221)
(-5.74326e-05 0.000111687 0.0131476)
(-6.88839e-05 9.54672e-05 0.0129711)
(-7.48249e-05 7.48249e-05 0.0126043)
(9.54672e-05 6.88839e-05 0.0129711)
(9.05488e-05 9.05488e-05 0.0132138)
(7.45659e-05 0.000107446 0.0132849)
(4.87815e-05 0.000119014 0.0132952)
(1.69227e-05 0.000124888 0.0132921)
(-1.69227e-05 0.000124888 0.0132921)
(-4.87815e-05 0.000119014 0.0132952)
(-7.4566e-05 0.000107447 0.0132849)
(-9.05488e-05 9.05488e-05 0.0132138)
(-9.54672e-05 6.88839e-05 0.0129711)
(0.000111687 5.74326e-05 0.0131476)
(0.000107446 7.45659e-05 0.0132849)
(8.83536e-05 8.83536e-05 0.013291)
(5.77156e-05 9.76919e-05 0.013268)
(2.00145e-05 0.000102399 0.0132514)
(-2.00145e-05 0.000102399 0.0132514)
(-5.77156e-05 9.76919e-05 0.013268)
(-8.83535e-05 8.83536e-05 0.013291)
(-0.000107446 7.4566e-05 0.0132849)
(-0.000111687 5.74327e-05 0.0131476)
(0.000123495 3.76061e-05 0.013221)
(0.000119014 4.87815e-05 0.0132952)
(9.76919e-05 5.77156e-05 0.013268)
(6.37239e-05 6.37239e-05 0.0132301)
(2.20869e-05 6.67322e-05 0.0132079)
(-2.20869e-05 6.67322e-05 0.0132079)
(-6.37239e-05 6.37239e-05 0.0132301)
(-9.76919e-05 5.77156e-05 0.013268)
(-0.000119014 4.87815e-05 0.0132952)
(-0.000123495 3.76061e-05 0.013221)
(0.000129535 1.30503e-05 0.0132463)
(0.000124888 1.69227e-05 0.0132921)
(0.000102399 2.00145e-05 0.0132514)
(6.67322e-05 2.20869e-05 0.0132079)
(2.31208e-05 2.31208e-05 0.0131837)
(-2.31208e-05 2.31208e-05 0.0131837)
(-6.67322e-05 2.20869e-05 0.0132079)
(-0.000102399 2.00145e-05 0.0132514)
(-0.000124888 1.69227e-05 0.0132921)
(-0.000129535 1.30503e-05 0.0132463)
(0.000129535 -1.30503e-05 0.0132463)
(0.000124888 -1.69227e-05 0.0132921)
(0.000102399 -2.00145e-05 0.0132514)
(6.67322e-05 -2.20869e-05 0.0132079)
(2.31208e-05 -2.31208e-05 0.0131837)
(-2.31208e-05 -2.31208e-05 0.0131837)
(-6.67322e-05 -2.20869e-05 0.0132079)
(-0.000102399 -2.00145e-05 0.0132514)
(-0.000124888 -1.69227e-05 0.0132921)
(-0.000129535 -1.30503e-05 0.0132463)
(0.000123495 -3.76061e-05 0.013221)
(0.000119014 -4.87815e-05 0.0132952)
(9.76919e-05 -5.77156e-05 0.013268)
(6.37239e-05 -6.37238e-05 0.0132301)
(2.20869e-05 -6.67322e-05 0.0132079)
(-2.20869e-05 -6.67322e-05 0.0132079)
(-6.37239e-05 -6.37239e-05 0.0132301)
(-9.76919e-05 -5.77156e-05 0.013268)
(-0.000119014 -4.87815e-05 0.0132952)
(-0.000123495 -3.76061e-05 0.013221)
(0.000111687 -5.74327e-05 0.0131476)
(0.000107447 -7.4566e-05 0.0132849)
(8.83536e-05 -8.83535e-05 0.013291)
(5.77156e-05 -9.76919e-05 0.013268)
(2.00145e-05 -0.000102399 0.0132514)
(-2.00145e-05 -0.000102399 0.0132514)
(-5.77156e-05 -9.76919e-05 0.013268)
(-8.83535e-05 -8.83535e-05 0.013291)
(-0.000107446 -7.45659e-05 0.0132849)
(-0.000111687 -5.74326e-05 0.0131476)
(9.54672e-05 -6.88839e-05 0.0129711)
(9.05488e-05 -9.05488e-05 0.0132138)
(7.4566e-05 -0.000107446 0.0132849)
(4.87815e-05 -0.000119014 0.0132952)
(1.69227e-05 -0.000124888 0.0132921)
(-1.69227e-05 -0.000124888 0.0132921)
(-4.87815e-05 -0.000119014 0.0132952)
(-7.45659e-05 -0.000107446 0.0132849)
(-9.05487e-05 -9.05487e-05 0.0132138)
(-9.54672e-05 -6.88839e-05 0.0129711)
(7.48249e-05 -7.48249e-05 0.0126043)
(6.88839e-05 -9.54672e-05 0.0129711)
(5.74327e-05 -0.000111687 0.0131476)
(3.76061e-05 -0.000123495 0.013221)
(1.30503e-05 -0.000129535 0.0132463)
(-1.30503e-05 -0.000129535 0.0132463)
(-3.76061e-05 -0.000123495 0.013221)
(-5.74326e-05 -0.000111687 0.0131476)
(-6.88839e-05 -9.54672e-05 0.0129711)
(-7.48249e-05 -7.48249e-05 0.0126043)
(2.43607e-05 2.43607e-05 0.0125589)
(2.39938e-05 3.36639e-05 0.0129399)
(2.13201e-05 4.13002e-05 0.013132)
(1.44164e-05 4.70985e-05 0.0132182)
(5.08572e-06 5.00949e-05 0.0132505)
(-5.08572e-06 5.00949e-05 0.0132505)
(-1.44164e-05 4.70985e-05 0.0132182)
(-2.13201e-05 4.13002e-05 0.013132)
(-2.39938e-05 3.36639e-05 0.0129399)
(-2.43607e-05 2.43607e-05 0.0125589)
(3.36639e-05 2.39938e-05 0.0129399)
(3.44562e-05 3.44562e-05 0.0132099)
(2.99417e-05 4.30102e-05 0.0133067)
(2.01897e-05 4.90923e-05 0.0133364)
(7.10396e-06 5.2227e-05 0.0133435)
(-7.10395e-06 5.2227e-05 0.0133435)
(-2.01897e-05 4.90923e-05 0.0133364)
(-2.99417e-05 4.30102e-05 0.0133067)
(-3.44562e-05 3.44562e-05 0.0132099)
(-3.36639e-05 2.39938e-05 0.0129399)
(4.13002e-05 2.13201e-05 0.013132)
(4.30102e-05 2.99417e-05 0.0133067)
(3.71959e-05 3.71959e-05 0.013346)
(2.50035e-05 4.22741e-05 0.0133468)
(8.7853e-06 4.48735e-05 0.0133424)
(-8.78529e-06 4.48735e-05 0.0133424)
(-2.50035e-05 4.22741e-05 0.0133468)
(-3.71958e-05 3.71959e-05 0.013346)
(-4.30102e-05 2.99417e-05 0.0133067)
(-4.13002e-05 2.13201e-05 0.013132)
(4.70985e-05 1.44164e-05 0.0132182)
(4.90923e-05 2.01896e-05 0.0133364)
(4.22741e-05 2.50035e-05 0.0133468)
(2.83383e-05 2.83383e-05 0.0133351)
(9.9455e-06 3.00336e-05 0.0133263)
(-9.9455e-06 3.00336e-05 0.0133263)
(-2.83383e-05 2.83383e-05 0.0133351)
(-4.22741e-05 2.50035e-05 0.0133468)
(-4.90923e-05 2.01897e-05 0.0133364)
(-4.70985e-05 1.44164e-05 0.0132182)
(5.00949e-05 5.08572e-06 0.0132505)
(5.2227e-05 7.10395e-06 0.0133435)
(4.48735e-05 8.78529e-06 0.0133424)
(3.00336e-05 9.9455e-06 0.0133263)
(1.05333e-05 1.05333e-05 0.0133159)
(-1.05333e-05 1.05333e-05 0.0133159)
(-3.00336e-05 9.94551e-06 0.0133263)
(-4.48735e-05 8.7853e-06 0.0133424)
(-5.2227e-05 7.10395e-06 0.0133435)
(-5.00949e-05 5.08571e-06 0.0132505)
(5.00949e-05 -5.08572e-06 0.0132505)
(5.2227e-05 -7.10395e-06 0.0133435)
(4.48735e-05 -8.78529e-06 0.0133424)
(3.00336e-05 -9.9455e-06 0.0133263)
(1.05333e-05 -1.05333e-05 0.0133159)
(-1.05333e-05 -1.05333e-05 0.0133159)
(-3.00336e-05 -9.94549e-06 0.0133263)
(-4.48735e-05 -8.78529e-06 0.0133424)
(-5.2227e-05 -7.10395e-06 0.0133435)
(-5.00949e-05 -5.08572e-06 0.0132505)
(4.70985e-05 -1.44164e-05 0.0132182)
(4.90923e-05 -2.01896e-05 0.0133364)
(4.22741e-05 -2.50035e-05 0.0133468)
(2.83383e-05 -2.83383e-05 0.0133351)
(9.94551e-06 -3.00336e-05 0.0133263)
(-9.9455e-06 -3.00336e-05 0.0133263)
(-2.83383e-05 -2.83383e-05 0.0133351)
(-4.22741e-05 -2.50035e-05 0.0133468)
(-4.90923e-05 -2.01896e-05 0.0133364)
(-4.70985e-05 -1.44164e-05 0.0132182)
(4.13002e-05 -2.13201e-05 0.013132)
(4.30102e-05 -2.99417e-05 0.0133067)
(3.71959e-05 -3.71958e-05 0.013346)
(2.50035e-05 -4.22741e-05 0.0133468)
(8.78529e-06 -4.48735e-05 0.0133424)
(-8.78529e-06 -4.48735e-05 0.0133424)
(-2.50035e-05 -4.22741e-05 0.0133468)
(-3.71958e-05 -3.71958e-05 0.013346)
(-4.30102e-05 -2.99417e-05 0.0133067)
(-4.13002e-05 -2.13201e-05 0.013132)
(3.36639e-05 -2.39938e-05 0.0129399)
(3.44562e-05 -3.44562e-05 0.0132099)
(2.99417e-05 -4.30102e-05 0.0133067)
(2.01896e-05 -4.90923e-05 0.0133364)
(7.10395e-06 -5.2227e-05 0.0133435)
(-7.10395e-06 -5.2227e-05 0.0133435)
(-2.01896e-05 -4.90923e-05 0.0133364)
(-2.99417e-05 -4.30102e-05 0.0133067)
(-3.44562e-05 -3.44562e-05 0.0132099)
(-3.36639e-05 -2.39938e-05 0.0129399)
(2.43607e-05 -2.43607e-05 0.0125589)
(2.39938e-05 -3.36639e-05 0.0129399)
(2.13201e-05 -4.13002e-05 0.013132)
(1.44164e-05 -4.70985e-05 0.0132182)
(5.08571e-06 -5.00949e-05 0.0132505)
(-5.08572e-06 -5.00949e-05 0.0132505)
(-1.44164e-05 -4.70985e-05 0.0132182)
(-2.13201e-05 -4.13002e-05 0.013132)
(-2.39938e-05 -3.36639e-05 0.0129399)
(-2.43608e-05 -2.43608e-05 0.0125589)
(6.29792e-06 6.29791e-06 0.012541)
(6.7883e-06 9.77755e-06 0.0129255)
(6.53862e-06 1.27717e-05 0.0131229)
(4.58196e-06 1.51719e-05 0.0132139)
(1.64991e-06 1.64235e-05 0.0132489)
(-1.6499e-06 1.64235e-05 0.0132489)
(-4.58196e-06 1.51719e-05 0.0132139)
(-6.53862e-06 1.27717e-05 0.0131229)
(-6.7883e-06 9.77756e-06 0.0129255)
(-6.29791e-06 6.29791e-06 0.012541)
(9.77755e-06 6.7883e-06 0.0129255)
(1.09962e-05 1.09962e-05 0.013205)
(1.01769e-05 1.46359e-05 0.0133121)
(7.09355e-06 1.73461e-05 0.01335)
(2.53624e-06 1.87678e-05 0.0133615)
(-2.53623e-06 1.87678e-05 0.0133615)
(-7.09354e-06 1.73461e-05 0.01335)
(-1.01769e-05 1.46359e-05 0.0133121)
(-1.09962e-05 1.09962e-05 0.013205)
(-9.77755e-06 6.78831e-06 0.0129255)
(1.27717e-05 6.53862e-06 0.0131229)
(1.46359e-05 1.01769e-05 0.0133121)
(1.34108e-05 1.34108e-05 0.0133655)
(9.30262e-06 1.57701e-05 0.013377)
(3.31627e-06 1.7001e-05 0.0133783)
(-3.31626e-06 1.7001e-05 0.0133783)
(-9.30261e-06 1.57701e-05 0.013377)
(-1.34108e-05 1.34108e-05 0.0133655)
(-1.46359e-05 1.01769e-05 0.0133121)
(-1.27717e-05 6.53863e-06 0.0131229)
(1.51719e-05 4.58196e-06 0.0132139)
(1.73461e-05 7.09355e-06 0.01335)
(1.57701e-05 9.30262e-06 0.013377)
(1.08938e-05 1.08938e-05 0.0133776)
(3.87603e-06 1.17189e-05 0.013375)
(-3.87602e-06 1.17189e-05 0.013375)
(-1.08938e-05 1.08938e-05 0.0133776)
(-1.57701e-05 9.30262e-06 0.013377)
(-1.73461e-05 7.09355e-06 0.01335)
(-1.51719e-05 4.58196e-06 0.0132139)
(1.64235e-05 1.64991e-06 0.0132489)
(1.87678e-05 2.53624e-06 0.0133615)
(1.7001e-05 3.31627e-06 0.0133783)
(1.17189e-05 3.87604e-06 0.013375)
(4.16557e-06 4.16557e-06 0.0133713)
(-4.16556e-06 4.16557e-06 0.0133713)
(-1.17189e-05 3.87603e-06 0.013375)
(-1.7001e-05 3.31627e-06 0.0133783)
(-1.87678e-05 2.53623e-06 0.0133615)
(-1.64235e-05 1.6499e-06 0.0132489)
(1.64235e-05 -1.6499e-06 0.0132489)
(1.87678e-05 -2.53623e-06 0.0133615)
(1.7001e-05 -3.31626e-06 0.0133783)
(1.17189e-05 -3.87602e-06 0.013375)
(4.16557e-06 -4.16556e-06 0.0133713)
(-4.16556e-06 -4.16556e-06 0.0133713)
(-1.17189e-05 -3.87602e-06 0.013375)
(-1.7001e-05 -3.31626e-06 0.0133783)
(-1.87678e-05 -2.53623e-06 0.0133615)
(-1.64235e-05 -1.6499e-06 0.0132489)
(1.51719e-05 -4.58196e-06 0.0132139)
(1.73461e-05 -7.09354e-06 0.01335)
(1.57701e-05 -9.30261e-06 0.013377)
(1.08938e-05 -1.08938e-05 0.0133776)
(3.87603e-06 -1.17189e-05 0.013375)
(-3.87602e-06 -1.17189e-05 0.013375)
(-1.08938e-05 -1.08938e-05 0.0133776)
(-1.57701e-05 -9.30261e-06 0.013377)
(-1.73461e-05 -7.09354e-06 0.01335)
(-1.51719e-05 -4.58196e-06 0.0132139)
(1.27717e-05 -6.53863e-06 0.0131229)
(1.46359e-05 -1.01769e-05 0.0133121)
(1.34108e-05 -1.34108e-05 0.0133655)
(9.30261e-06 -1.57701e-05 0.013377)
(3.31627e-06 -1.7001e-05 0.0133783)
(-3.31626e-06 -1.7001e-05 0.0133783)
(-9.30261e-06 -1.57701e-05 0.013377)
(-1.34108e-05 -1.34108e-05 0.0133655)
(-1.46359e-05 -1.01769e-05 0.0133121)
(-1.27717e-05 -6.53862e-06 0.0131229)
(9.77755e-06 -6.78831e-06 0.0129255)
(1.09962e-05 -1.09962e-05 0.013205)
(1.01769e-05 -1.46359e-05 0.0133121)
(7.09355e-06 -1.73461e-05 0.01335)
(2.53624e-06 -1.87678e-05 0.0133615)
(-2.53623e-06 -1.87678e-05 0.0133615)
(-7.09354e-06 -1.73461e-05 0.01335)
(-1.01769e-05 -1.46359e-05 0.0133121)
(-1.09962e-05 -1.09962e-05 0.013205)
(-9.77756e-06 -6.7883e-06 0.0129255)
(6.29791e-06 -6.29791e-06 0.012541)
(6.78831e-06 -9.77756e-06 0.0129255)
(6.53863e-06 -1.27717e-05 0.0131229)
(4.58196e-06 -1.51719e-05 0.0132139)
(1.6499e-06 -1.64235e-05 0.0132489)
(-1.6499e-06 -1.64235e-05 0.0132489)
(-4.58196e-06 -1.51719e-05 0.0132139)
(-6.53862e-06 -1.27717e-05 0.0131229)
(-6.7883e-06 -9.77756e-06 0.0129255)
(-6.29792e-06 -6.29791e-06 0.012541)
(1.36125e-06 1.36125e-06 0.0125338)
(1.6691e-06 2.48128e-06 0.0129189)
(1.78751e-06 3.48127e-06 0.0131178)
(1.30288e-06 4.33078e-06 0.0132104)
(4.81386e-07 4.77507e-06 0.0132463)
(-4.81386e-07 4.77507e-06 0.0132463)
(-1.30288e-06 4.33077e-06 0.0132104)
(-1.78751e-06 3.48126e-06 0.0131178)
(-1.66909e-06 2.48128e-06 0.0129189)
(-1.36125e-06 1.36125e-06 0.0125338)
(2.48128e-06 1.6691e-06 0.0129189)
(3.12782e-06 3.12782e-06 0.0132013)
(3.09914e-06 4.4472e-06 0.0133121)
(2.23176e-06 5.47136e-06 0.0133531)
(8.11417e-07 6.01624e-06 0.0133664)
(-8.11417e-07 6.01624e-06 0.0133664)
(-2.23176e-06 5.47136e-06 0.0133531)
(-3.09914e-06 4.4472e-06 0.0133121)
(-3.12781e-06 3.12781e-06 0.0132013)
(-2.48127e-06 1.66909e-06 0.0129189)
(3.48127e-06 1.78751e-06 0.0131178)
(4.4472e-06 3.09914e-06 0.0133121)
(4.322e-06 4.322e-06 0.0133711)
(3.08984e-06 5.24959e-06 0.013387)
(1.11725e-06 5.74159e-06 0.0133906)
(-1.11725e-06 5.74159e-06 0.0133906)
(-3.08984e-06 5.24959e-06 0.013387)
(-4.322e-06 4.32201e-06 0.0133711)
(-4.44719e-06 3.09914e-06 0.0133121)
(-3.48126e-06 1.78751e-06 0.0131178)
(4.33078e-06 1.30288e-06 0.0132104)
(5.47136e-06 2.23175e-06 0.0133531)
(5.24958e-06 3.08984e-06 0.013387)
(3.73187e-06 3.73187e-06 0.0133927)
(1.34546e-06 4.07087e-06 0.013393)
(-1.34546e-06 4.07087e-06 0.013393)
(-3.73187e-06 3.73188e-06 0.0133927)
(-5.24958e-06 3.08984e-06 0.013387)
(-5.47135e-06 2.23176e-06 0.0133531)
(-4.33077e-06 1.30288e-06 0.0132104)
(4.77507e-06 4.81387e-07 0.0132463)
(6.01624e-06 8.11417e-07 0.0133664)
(5.74159e-06 1.11725e-06 0.0133906)
(4.07087e-06 1.34546e-06 0.013393)
(1.46581e-06 1.46581e-06 0.0133922)
(-1.46581e-06 1.46581e-06 0.0133922)
(-4.07086e-06 1.34546e-06 0.013393)
(-5.74158e-06 1.11726e-06 0.0133906)
(-6.01623e-06 8.11418e-07 0.0133664)
(-4.77507e-06 4.81386e-07 0.0132463)
(4.77507e-06 -4.81386e-07 0.0132463)
(6.01624e-06 -8.11417e-07 0.0133664)
(5.74159e-06 -1.11725e-06 0.0133906)
(4.07087e-06 -1.34546e-06 0.013393)
(1.46581e-06 -1.46581e-06 0.0133922)
(-1.46581e-06 -1.46581e-06 0.0133922)
(-4.07086e-06 -1.34545e-06 0.013393)
(-5.74158e-06 -1.11725e-06 0.0133906)
(-6.01623e-06 -8.11416e-07 0.0133664)
(-4.77506e-06 -4.81388e-07 0.0132463)
(4.33077e-06 -1.30288e-06 0.0132104)
(5.47136e-06 -2.23175e-06 0.0133531)
(5.24959e-06 -3.08984e-06 0.013387)
(3.73188e-06 -3.73187e-06 0.0133927)
(1.34546e-06 -4.07086e-06 0.013393)
(-1.34546e-06 -4.07086e-06 0.013393)
(-3.73187e-06 -3.73187e-06 0.0133927)
(-5.24958e-06 -3.08984e-06 0.013387)
(-5.47135e-06 -2.23175e-06 0.0133531)
(-4.33077e-06 -1.30287e-06 0.0132104)
(3.48126e-06 -1.78751e-06 0.0131178)
(4.44719e-06 -3.09914e-06 0.0133121)
(4.32201e-06 -4.322e-06 0.0133711)
(3.08985e-06 -5.24958e-06 0.013387)
(1.11726e-06 -5.74158e-06 0.0133906)
(-1.11725e-06 -5.74158e-06 0.0133906)
(-3.08984e-06 -5.24958e-06 0.013387)
(-4.322e-06 -4.322e-06 0.0133711)
(-4.44719e-06 -3.09914e-06 0.0133121)
(-3.48126e-06 -1.7875e-06 0.0131178)
(2.48127e-06 -1.66909e-06 0.0129189)
(3.12781e-06 -3.12781e-06 0.0132013)
(3.09914e-06 -4.44719e-06 0.0133121)
(2.23176e-06 -5.47135e-06 0.0133531)
(8.11419e-07 -6.01623e-06 0.0133664)
(-8.11416e-07 -6.01623e-06 0.0133664)
(-2.23176e-06 -5.47135e-06 0.0133531)
(-3.09914e-06 -4.44719e-06 0.0133121)
(-3.12781e-06 -3.1278e-06 0.0132013)
(-2.48128e-06 -1.66909e-06 0.0129189)
(1.36125e-06 -1.36125e-06 0.0125338)
(1.6691e-06 -2.48127e-06 0.0129189)
(1.78751e-06 -3.48126e-06 0.0131178)
(1.30288e-06 -4.33077e-06 0.0132104)
(4.81386e-07 -4.77507e-06 0.0132463)