/*--------------------------------*- C++ -*----------------------------------*\
| =========                 |                                                 |
| \\      /  F ield         | OpenFOAM: The Open Source CFD Toolbox           |
|  \\    /   O peration     | Version:  2412                                  |
|   \\  /    A nd           | Website:  www.openfoam.com                      |
|    \\/     M anipulation  |                                                 |
\*---------------------------------------------------------------------------*/
FoamFile
{
    version     2.0;
    format      ascii;
    arch        "LSB;label=32;scalar=64";
    class       surfaceScalarField;
    location    "0.4";
    object      phi;
}
// * * * * * * * * * * * * * * * * * * * * * * * * * * * * * * * * * * * * * //

dimensions      [0 3 -1 0 0 0 0];

oriented        oriented;

internalField   nonuniform List<scalar> 
43700
(
3.50554e-05
3.50554e-05
5.67904e-05
-3.99497e-05
-3.99497e-05
2.79896e-05
3.49061e-05
6.361e-05
-4.0512e-05
1.93664e-05
3.43001e-05
6.84081e-05
-4.01419e-05
9.87197e-06
3.37123e-05
7.14682e-05
-3.97149e-05
2.65104e-12
3.33716e-05
7.29485e-05
-3.94552e-05
-9.87197e-06
3.33716e-05
7.29485e-05
-3.94552e-05
-1.93664e-05
3.37124e-05
7.14682e-05
-3.97149e-05
-2.79896e-05
3.43001e-05
6.84081e-05
-4.01419e-05
-3.50554e-05
3.49061e-05
6.361e-05
-4.0512e-05
3.50554e-05
5.67904e-05
-3.99497e-05
-3.99497e-05
3.49061e-05
2.79896e-05
6.361e-05
-4.0512e-05
2.72463e-05
2.72463e-05
6.99039e-05
1.8527e-05
2.64289e-05
7.39595e-05
9.34111e-06
2.57681e-05
7.63798e-05
4.28206e-12
2.54048e-05
7.75051e-05
-9.3411e-06
2.54048e-05
7.75051e-05
-1.8527e-05
2.57681e-05
7.63798e-05
-2.72463e-05
2.64289e-05
7.39595e-05
-3.49061e-05
2.72463e-05
6.99039e-05
2.79896e-05
6.361e-05
-4.0512e-05
3.43001e-05
1.93664e-05
6.84081e-05
-4.01419e-05
2.64289e-05
1.8527e-05
7.39595e-05
1.77621e-05
1.77621e-05
7.7321e-05
8.88608e-06
1.71912e-05
7.92091e-05
4.08493e-12
1.68879e-05
8.00508e-05
-8.88607e-06
1.68879e-05
8.00508e-05
-1.77621e-05
1.71912e-05
7.92091e-05
-2.64289e-05
1.77621e-05
7.7321e-05
-3.43001e-05
1.8527e-05
7.39595e-05
1.93664e-05
6.84081e-05
-4.01419e-05
3.37124e-05
9.87197e-06
7.14682e-05
-3.97149e-05
2.57681e-05
9.3411e-06
7.63798e-05
1.71912e-05
8.88608e-06
7.92091e-05
8.55751e-06
8.55752e-06
8.07177e-05
8.92132e-13
8.38584e-06
8.13638e-05
-8.55751e-06
8.38583e-06
8.13638e-05
-1.71912e-05
8.55751e-06
8.07177e-05
-2.57681e-05
8.88607e-06
7.92091e-05
-3.37123e-05
9.3411e-06
7.63798e-05
9.87197e-06
7.14682e-05
-3.97149e-05
3.33716e-05
-1.03982e-13
7.29485e-05
-3.94552e-05
2.54049e-05
-1.48336e-12
7.75051e-05
1.68879e-05
-1.67839e-12
8.00508e-05
8.38583e-06
2.50158e-13
8.13638e-05
-7.60861e-13
2.70403e-12
8.19109e-05
-8.38583e-06
4.7017e-12
8.19109e-05
-1.68879e-05
4.18122e-12
8.13638e-05
-2.54048e-05
-1.78236e-13
8.00508e-05
-3.33716e-05
-6.35864e-12
7.75051e-05
-9.75427e-12
7.29485e-05
-3.94552e-05
3.33716e-05
-9.87197e-06
7.29485e-05
-3.94552e-05
2.54049e-05
-9.3411e-06
7.75051e-05
1.68879e-05
-8.88608e-06
8.00508e-05
8.38583e-06
-8.55752e-06
8.13638e-05
1.17443e-12
-8.38583e-06
8.19109e-05
-8.38583e-06
-8.38583e-06
8.19109e-05
-1.68879e-05
-8.55751e-06
8.13638e-05
-2.54048e-05
-8.88607e-06
8.00508e-05
-3.33716e-05
-9.3411e-06
7.75051e-05
-9.87197e-06
7.29485e-05
-3.94552e-05
3.37123e-05
-1.93664e-05
7.14682e-05
-3.97149e-05
2.57681e-05
-1.8527e-05
7.63798e-05
1.71912e-05
-1.77621e-05
7.92091e-05
8.55752e-06
-1.71912e-05
8.07177e-05
3.40936e-12
-1.68879e-05
8.13638e-05
-8.55751e-06
-1.68879e-05
8.13638e-05
-1.71912e-05
-1.71912e-05
8.07177e-05
-2.57681e-05
-1.77621e-05
7.92091e-05
-3.37124e-05
-1.8527e-05
7.63798e-05
-1.93663e-05
7.14682e-05
-3.97149e-05
3.43001e-05
-2.79896e-05
6.84081e-05
-4.01419e-05
2.64289e-05
-2.72463e-05
7.39595e-05
1.77621e-05
-2.64289e-05
7.7321e-05
8.88608e-06
-2.57681e-05
7.92091e-05
2.40068e-12
-2.54048e-05
8.00508e-05
-8.88607e-06
-2.54048e-05
8.00508e-05
-1.77621e-05
-2.57681e-05
7.92091e-05
-2.64289e-05
-2.64289e-05
7.7321e-05
-3.43001e-05
-2.72463e-05
7.39595e-05
-2.79896e-05
6.84081e-05
-4.01419e-05
3.49061e-05
-3.50554e-05
6.361e-05
-4.0512e-05
2.72463e-05
-3.49061e-05
6.99039e-05
1.8527e-05
-3.43001e-05
7.39595e-05
9.3411e-06
-3.37123e-05
7.63798e-05
-7.98212e-13
-3.33716e-05
7.75051e-05
-9.3411e-06
-3.33716e-05
7.75051e-05
-1.8527e-05
-3.37124e-05
7.63798e-05
-2.72463e-05
-3.43001e-05
7.39595e-05
-3.49061e-05
-3.49061e-05
6.99039e-05
-3.50554e-05
6.361e-05
-4.0512e-05
3.50554e-05
5.67904e-05
-3.99497e-05
-3.99497e-05
2.79896e-05
6.361e-05
-4.0512e-05
1.93664e-05
6.84081e-05
-4.01419e-05
9.87197e-06
7.14682e-05
-3.97149e-05
-2.6899e-12
7.29485e-05
-3.94552e-05
-9.87197e-06
7.29485e-05
-3.94552e-05
-1.93664e-05
7.14682e-05
-3.97149e-05
-2.79896e-05
6.84081e-05
-4.01419e-05
-3.50554e-05
6.361e-05
-4.0512e-05
5.67904e-05
-3.99496e-05
-3.99497e-05
1.98762e-05
1.98762e-05
5.71029e-05
-2.00325e-05
-2.00325e-05
1.73632e-05
2.21649e-05
6.61817e-05
-2.22236e-05
1.27974e-05
2.37475e-05
7.30466e-05
-2.38201e-05
6.7753e-06
2.47451e-05
7.76043e-05
-2.48591e-05
2.80565e-12
2.52218e-05
7.98656e-05
-2.53637e-05
-6.77529e-06
2.52218e-05
7.98656e-05
-2.53637e-05
-1.27974e-05
2.47451e-05
7.76043e-05
-2.48591e-05
-1.73632e-05
2.37475e-05
7.30466e-05
-2.38201e-05
-1.98762e-05
2.21649e-05
6.61817e-05
-2.22236e-05
1.98762e-05
5.71029e-05
-2.00325e-05
-2.00325e-05
2.21649e-05
1.73632e-05
6.61817e-05
-2.22236e-05
1.92434e-05
1.92434e-05
7.57469e-05
1.40668e-05
2.05089e-05
8.23748e-05
7.4017e-06
2.12803e-05
8.65096e-05
1.95112e-12
2.16425e-05
8.84861e-05
-7.40169e-06
2.16425e-05
8.84861e-05
-1.40667e-05
2.12803e-05
8.65096e-05
-1.92434e-05
2.05089e-05
8.23748e-05
-2.21649e-05
1.92434e-05
7.57469e-05
1.73632e-05
6.61817e-05
-2.22236e-05
2.37475e-05
1.27974e-05
7.30466e-05
-2.38201e-05
2.05089e-05
1.40668e-05
8.23748e-05
1.49074e-05
1.49074e-05
8.85238e-05
7.81118e-06
1.54058e-05
9.21799e-05
1.84931e-12
1.56361e-05
9.38685e-05
-7.81118e-06
1.56361e-05
9.38685e-05
-1.49074e-05
1.54058e-05
9.21799e-05
-2.05089e-05
1.49074e-05
8.85238e-05
-2.37475e-05
1.40667e-05
8.23748e-05
1.27974e-05
7.30466e-05
-2.38201e-05
2.47451e-05
6.77529e-06
7.76043e-05
-2.48591e-05
2.12803e-05
7.40169e-06
8.65096e-05
1.54058e-05
7.81118e-06
9.21799e-05
8.04889e-06
8.04889e-06
9.54316e-05
1.59908e-12
8.15735e-06
9.68914e-05
-8.04889e-06
8.15735e-06
9.68914e-05
-1.54058e-05
8.04889e-06
9.54316e-05
-2.12803e-05
7.81118e-06
9.21799e-05
-2.47451e-05
7.40169e-06
8.65096e-05
6.77529e-06
7.76043e-05
-2.48591e-05
2.52218e-05
9.81558e-13
7.98656e-05
-2.53637e-05
2.16425e-05
2.0674e-13
8.84861e-05
1.56361e-05
-1.58095e-13
9.38685e-05
8.15735e-06
1.82108e-13
9.68914e-05
1.92544e-12
8.69089e-13
9.82256e-05
-8.15735e-06
1.54016e-12
9.82256e-05
-1.56361e-05
2.11432e-12
9.68914e-05
-2.16425e-05
2.20165e-12
9.38685e-05
-2.52218e-05
1.24128e-12
8.84861e-05
-2.29168e-13
7.98656e-05
-2.53637e-05
2.52218e-05
-6.77529e-06
7.98656e-05
-2.53637e-05
2.16425e-05
-7.40169e-06
8.84861e-05
1.56361e-05
-7.81118e-06
9.38685e-05
8.15735e-06
-8.04889e-06
9.68914e-05
2.50543e-12
-8.15735e-06
9.82256e-05
-8.15735e-06
-8.15735e-06
9.82256e-05
-1.56361e-05
-8.04889e-06
9.68914e-05
-2.16425e-05
-7.81118e-06
9.38685e-05
-2.52218e-05
-7.40169e-06
8.84861e-05
-6.77529e-06
7.98656e-05
-2.53637e-05
2.47451e-05
-1.27974e-05
7.76043e-05
-2.48591e-05
2.12803e-05
-1.40667e-05
8.65096e-05
1.54058e-05
-1.49074e-05
9.21799e-05
8.0489e-06
-1.54058e-05
9.54316e-05
2.70171e-12
-1.56361e-05
9.68914e-05
-8.04889e-06
-1.56361e-05
9.68914e-05
-1.54058e-05
-1.54058e-05
9.54316e-05
-2.12803e-05
-1.49074e-05
9.21799e-05
-2.47451e-05
-1.40667e-05
8.65096e-05
-1.27974e-05
7.76043e-05
-2.48591e-05
2.37475e-05
-1.73632e-05
7.30466e-05
-2.38201e-05
2.05089e-05
-1.92434e-05
8.23748e-05
1.49074e-05
-2.05089e-05
8.85238e-05
7.81118e-06
-2.12803e-05
9.21799e-05
2.17656e-12
-2.16425e-05
9.38685e-05
-7.81118e-06
-2.16425e-05
9.38685e-05
-1.49074e-05
-2.12803e-05
9.21799e-05
-2.05089e-05
-2.05089e-05
8.85238e-05
-2.37475e-05
-1.92434e-05
8.23748e-05
-1.73632e-05
7.30466e-05
-2.38201e-05
2.21649e-05
-1.98762e-05
6.61817e-05
-2.22236e-05
1.92434e-05
-2.21649e-05
7.57469e-05
1.40668e-05
-2.37475e-05
8.23748e-05
7.40169e-06
-2.47451e-05
8.65096e-05
1.52088e-12
-2.52218e-05
8.84861e-05
-7.40169e-06
-2.52218e-05
8.84861e-05
-1.40667e-05
-2.47451e-05
8.65096e-05
-1.92434e-05
-2.37475e-05
8.23748e-05
-2.21649e-05
-2.21649e-05
7.57469e-05
-1.98762e-05
6.61817e-05
-2.22236e-05
1.98762e-05
5.71029e-05
-2.00325e-05
-2.00325e-05
1.73632e-05
6.61817e-05
-2.22236e-05
1.27974e-05
7.30466e-05
-2.38201e-05
6.7753e-06
7.76043e-05
-2.48591e-05
1.75858e-12
7.98656e-05
-2.53637e-05
-6.77529e-06
7.98656e-05
-2.53637e-05
-1.27974e-05
7.76043e-05
-2.48591e-05
-1.73632e-05
7.30466e-05
-2.38201e-05
-1.98762e-05
6.61817e-05
-2.22236e-05
5.71029e-05
-2.00325e-05
-2.00325e-05
1.18522e-05
1.18522e-05
5.51369e-05
-1.08692e-05
-1.08692e-05
1.09851e-05
1.39502e-05
6.57001e-05
-1.26014e-05
8.42716e-06
1.54856e-05
7.40336e-05
-1.39146e-05
4.56587e-06
1.65224e-05
7.97609e-05
-1.48177e-05
1.20077e-12
1.70437e-05
8.26632e-05
-1.52754e-05
-4.56587e-06
1.70437e-05
8.26632e-05
-1.52754e-05
-8.42716e-06
1.65224e-05
7.97609e-05
-1.48177e-05
-1.09851e-05
1.54856e-05
7.40336e-05
-1.39146e-05
-1.18522e-05
1.39502e-05
6.57001e-05
-1.26014e-05
1.18522e-05
5.51369e-05
-1.08692e-05
-1.08692e-05
1.39502e-05
1.09851e-05
6.57001e-05
-1.26014e-05
1.29802e-05
1.29802e-05
7.76868e-05
9.93513e-06
1.44213e-05
8.64842e-05
5.36756e-06
1.53679e-05
9.22317e-05
7.29747e-13
1.58368e-05
9.50605e-05
-5.36756e-06
1.58368e-05
9.50605e-05
-9.93513e-06
1.53679e-05
9.22317e-05
-1.29802e-05
1.44213e-05
8.64842e-05
-1.39502e-05
1.29802e-05
7.76868e-05
1.09851e-05
6.57001e-05
-1.26014e-05
1.54856e-05
8.42716e-06
7.40336e-05
-1.39146e-05
1.44213e-05
9.93513e-06
8.64842e-05
1.10262e-05
1.10262e-05
9.5314e-05
5.9491e-06
1.17311e-05
0.000100894
8.40994e-13
1.20766e-05
0.000103578
-5.9491e-06
1.20766e-05
0.000103578
-1.10262e-05
1.17311e-05
0.000100894
-1.44213e-05
1.10262e-05
9.5314e-05
-1.54856e-05
9.93513e-06
8.64842e-05
8.42716e-06
7.40336e-05
-1.39146e-05
1.65224e-05
4.56587e-06
7.97609e-05
-1.48177e-05
1.53679e-05
5.36756e-06
9.22317e-05
1.17311e-05
5.9491e-06
0.000100894
6.32131e-06
6.32131e-06
0.000106251
1.66681e-12
6.50261e-06
0.000108787
-6.32131e-06
6.50261e-06
0.000108787
-1.17311e-05
6.32131e-06
0.000106251
-1.53679e-05
5.94911e-06
0.000100894
-1.65224e-05
5.36756e-06
9.22317e-05
4.56587e-06
7.97609e-05
-1.48177e-05
1.70437e-05
9.20191e-13
8.26632e-05
-1.52754e-05
1.58368e-05
1.51239e-12
9.50605e-05
1.20766e-05
1.14468e-12
0.000103578
6.50261e-06
5.24825e-13
0.000108787
2.46243e-12
2.31399e-13
0.000111231
-6.50261e-06
3.83291e-13
0.000111231
-1.20766e-05
1.15476e-12
0.000108787
-1.58368e-05
2.27703e-12
0.000103578
-1.70437e-05
2.73555e-12
9.50605e-05
1.93182e-12
8.26632e-05
-1.52754e-05
1.70437e-05
-4.56587e-06
8.26632e-05
-1.52754e-05
1.58368e-05
-5.36756e-06
9.50605e-05
1.20766e-05
-5.9491e-06
0.000103578
6.50261e-06
-6.32131e-06
0.000108787
2.58719e-12
-6.50261e-06
0.000111231
-6.50261e-06
-6.50261e-06
0.000111231
-1.20766e-05
-6.32131e-06
0.000108787
-1.58368e-05
-5.9491e-06
0.000103578
-1.70437e-05
-5.36756e-06
9.50605e-05
-4.56587e-06
8.26632e-05
-1.52754e-05
1.65224e-05
-8.42716e-06
7.97609e-05
-1.48177e-05
1.53679e-05
-9.93513e-06
9.22317e-05
1.17311e-05
-1.10262e-05
0.000100894
6.32131e-06
-1.17311e-05
0.000106251
2.03936e-12
-1.20766e-05
0.000108787
-6.32131e-06
-1.20766e-05
0.000108787
-1.17311e-05
-1.17311e-05
0.000106251
-1.53679e-05
-1.10262e-05
0.000100894
-1.65224e-05
-9.93513e-06
9.22317e-05
-8.42716e-06
7.97609e-05
-1.48177e-05
1.54856e-05
-1.09851e-05
7.40336e-05
-1.39146e-05
1.44213e-05
-1.29802e-05
8.64842e-05
1.10262e-05
-1.44213e-05
9.5314e-05
5.9491e-06
-1.53679e-05
0.000100894
1.43987e-12
-1.58368e-05
0.000103578
-5.9491e-06
-1.58368e-05
0.000103578
-1.10262e-05
-1.53679e-05
0.000100894
-1.44213e-05
-1.44213e-05
9.5314e-05
-1.54856e-05
-1.29802e-05
8.64842e-05
-1.09851e-05
7.40336e-05
-1.39146e-05
1.39502e-05
-1.18522e-05
6.57001e-05
-1.26014e-05
1.29802e-05
-1.39502e-05
7.76868e-05
9.93513e-06
-1.54856e-05
8.64842e-05
5.36756e-06
-1.65224e-05
9.22317e-05
1.22349e-12
-1.70437e-05
9.50605e-05
-5.36756e-06
-1.70437e-05
9.50605e-05
-9.93513e-06
-1.65224e-05
9.22317e-05
-1.29802e-05
-1.54856e-05
8.64842e-05
-1.39502e-05
-1.39502e-05
7.76868e-05
-1.18522e-05
6.57001e-05
-1.26014e-05
1.18522e-05
5.51369e-05
-1.08692e-05
-1.08692e-05
1.09851e-05
6.57001e-05
-1.26014e-05
8.42716e-06
7.40336e-05
-1.39146e-05
4.56587e-06
7.97609e-05
-1.48177e-05
1.40619e-12
8.26632e-05
-1.52754e-05
-4.56587e-06
8.26632e-05
-1.52754e-05
-8.42716e-06
7.97609e-05
-1.48177e-05
-1.09851e-05
7.40336e-05
-1.39146e-05
-1.18522e-05
6.57001e-05
-1.26014e-05
5.51369e-05
-1.08692e-05
-1.08692e-05
5.85838e-06
5.85838e-06
5.3741e-05
-5.16041e-06
-5.16041e-06
5.63822e-06
7.24205e-06
6.48777e-05
-6.19951e-06
4.44885e-06
8.3477e-06
7.39322e-05
-7.05695e-06
2.4527e-06
9.13427e-06
8.02948e-05
-7.67206e-06
9.09889e-13
9.54161e-06
8.35654e-05
-7.9911e-06
-2.45269e-06
9.54161e-06
8.35654e-05
-7.9911e-06
-4.44884e-06
9.13427e-06
8.02948e-05
-7.67206e-06
-5.63822e-06
8.3477e-06
7.39322e-05
-7.05695e-06
-5.85838e-06
7.24205e-06
6.48777e-05
-6.19952e-06
5.85838e-06
5.3741e-05
-5.16041e-06
-5.16041e-06
7.24205e-06
5.63822e-06
6.48777e-05
-6.19952e-06
7.05557e-06
7.05557e-06
7.80598e-05
5.58281e-06
8.17671e-06
8.81279e-05
3.0774e-06
8.95779e-06
9.49136e-05
1.3023e-12
9.35826e-06
9.83213e-05
-3.0774e-06
9.35826e-06
9.83213e-05
-5.5828e-06
8.95779e-06
9.49136e-05
-7.05557e-06
8.17671e-06
8.81279e-05
-7.24205e-06
7.05557e-06
7.80598e-05
5.63822e-06
6.48777e-05
-6.19951e-06
8.3477e-06
4.44885e-06
7.39322e-05
-7.05695e-06
8.17671e-06
5.5828e-06
8.81279e-05
6.48255e-06
6.48255e-06
9.87023e-05
3.5746e-06
7.10176e-06
0.000105658
1.27643e-12
7.41692e-06
0.000109094
-3.5746e-06
7.41692e-06
0.000109094
-6.48255e-06
7.10176e-06
0.000105658
-8.17671e-06
6.48255e-06
9.87023e-05
-8.3477e-06
5.58281e-06
8.81279e-05
4.44885e-06
7.39322e-05
-7.05695e-06
9.13427e-06
2.4527e-06
8.02948e-05
-7.67206e-06
8.95779e-06
3.0774e-06
9.49136e-05
7.10176e-06
3.5746e-06
0.000105658
3.91464e-06
3.91464e-06
0.000112625
1.2623e-12
4.08698e-06
0.000116031
-3.91464e-06
4.08698e-06
0.000116031
-7.10176e-06
3.91464e-06
0.000112625
-8.95779e-06
3.5746e-06
0.000105658
-9.13427e-06
3.0774e-06
9.49136e-05
2.4527e-06
8.02948e-05
-7.67206e-06
9.54161e-06
1.05265e-12
8.35654e-05
-7.9911e-06
9.35826e-06
1.7901e-12
9.83213e-05
7.41692e-06
1.41862e-12
0.000109094
4.08698e-06
8.63804e-13
0.000116031
1.54535e-12
9.24689e-13
0.000119405
-4.08698e-06
1.42208e-12
0.000119405
-7.41692e-06
1.76503e-12
0.000116031
-9.35826e-06
1.62802e-12
0.000109094
-9.54161e-06
9.01135e-13
9.83213e-05
3.06607e-15
8.35654e-05
-7.9911e-06
9.54162e-06
-2.4527e-06
8.35654e-05
-7.9911e-06
9.35826e-06
-3.0774e-06
9.83213e-05
7.41692e-06
-3.5746e-06
0.000109094
4.08698e-06
-3.91464e-06
0.000116031
2.01477e-12
-4.08698e-06
0.000119405
-4.08698e-06
-4.08698e-06
0.000119405
-7.41692e-06
-3.91464e-06
0.000116031
-9.35826e-06
-3.5746e-06
0.000109094
-9.54161e-06
-3.0774e-06
9.83213e-05
-2.45269e-06
8.35654e-05
-7.9911e-06
9.13427e-06
-4.44884e-06
8.02948e-05
-7.67206e-06
8.95779e-06
-5.5828e-06
9.49136e-05
7.10176e-06
-6.48254e-06
0.000105658
3.91464e-06
-7.10176e-06
0.000112625
2.03255e-12
-7.41692e-06
0.000116031
-3.91464e-06
-7.41692e-06
0.000116031
-7.10176e-06
-7.10176e-06
0.000112625
-8.95779e-06
-6.48255e-06
0.000105658
-9.13427e-06
-5.5828e-06
9.49136e-05
-4.44884e-06
8.02948e-05
-7.67206e-06
8.3477e-06
-5.63822e-06
7.39322e-05
-7.05695e-06
8.17671e-06
-7.05557e-06
8.81279e-05
6.48255e-06
-8.17671e-06
9.87023e-05
3.5746e-06
-8.95779e-06
0.000105658
1.51973e-12
-9.35826e-06
0.000109094
-3.5746e-06
-9.35826e-06
0.000109094
-6.48255e-06
-8.95779e-06
0.000105658
-8.17671e-06
-8.17671e-06
9.87023e-05
-8.34769e-06
-7.05557e-06
8.81279e-05
-5.63822e-06
7.39322e-05
-7.05695e-06
7.24205e-06
-5.85838e-06
6.48777e-05
-6.19951e-06
7.05557e-06
-7.24205e-06
7.80598e-05
5.58281e-06
-8.34769e-06
8.81279e-05
3.0774e-06
-9.13427e-06
9.49136e-05
1.05599e-12
-9.54161e-06
9.83213e-05
-3.0774e-06
-9.54161e-06
9.83213e-05
-5.5828e-06
-9.13427e-06
9.49136e-05
-7.05557e-06
-8.34769e-06
8.81279e-05
-7.24205e-06
-7.24205e-06
7.80598e-05
-5.85838e-06
6.48777e-05
-6.19951e-06
5.85838e-06
5.3741e-05
-5.16041e-06
-5.16041e-06
5.63822e-06
6.48777e-05
-6.19951e-06
4.44885e-06
7.39322e-05
-7.05695e-06
2.4527e-06
8.02948e-05
-7.67206e-06
1.04221e-12
8.35654e-05
-7.9911e-06
-2.4527e-06
8.35654e-05
-7.9911e-06
-4.44884e-06
8.02948e-05
-7.67206e-06
-5.63822e-06
7.39322e-05
-7.05695e-06
-5.85838e-06
6.48777e-05
-6.19951e-06
5.3741e-05
-5.16041e-06
-5.16041e-06
3.13766e-06
3.13766e-06
5.28085e-05
-2.6714e-06
-2.6714e-06
3.08996e-06
3.94009e-06
6.42305e-05
-3.24517e-06
2.47979e-06
4.60195e-06
7.36667e-05
-3.72623e-06
1.3813e-06
5.08601e-06
8.03851e-05
-4.07785e-06
1.79536e-12
5.34119e-06
8.38681e-05
-4.26265e-06
-1.3813e-06
5.34119e-06
8.38681e-05
-4.26265e-06
-2.47979e-06
5.08601e-06
8.03851e-05
-4.07785e-06
-3.08995e-06
4.60195e-06
7.36667e-05
-3.72623e-06
-3.13766e-06
3.9401e-06
6.42305e-05
-3.24517e-06
3.13766e-06
5.28085e-05
-2.6714e-06
-2.6714e-06
3.9401e-06
3.08996e-06
6.42305e-05
-3.24517e-06
3.94927e-06
3.94927e-06
7.80414e-05
3.19025e-06
4.65769e-06
8.88312e-05
1.78082e-06
5.16767e-06
9.62414e-05
1.44041e-12
5.43451e-06
0.000100009
-1.78082e-06
5.43451e-06
0.000100009
-3.19025e-06
5.16767e-06
9.62414e-05
-3.94927e-06
4.65769e-06
8.88312e-05
-3.94009e-06
3.94927e-06
7.80414e-05
3.08996e-06
6.42305e-05
-3.24517e-06
4.60195e-06
2.47979e-06
7.36667e-05
-3.72623e-06
4.65769e-06
3.19025e-06
8.88312e-05
3.78144e-06
3.78144e-06
0.000100455
2.11545e-06
4.20347e-06
0.000108288
1.25328e-12
4.4231e-06
0.000112221
-2.11545e-06
4.4231e-06
0.000112221
-3.78144e-06
4.20347e-06
0.000108288
-4.65769e-06
3.78144e-06
0.000100455
-4.60195e-06
3.19025e-06
8.88312e-05
2.47979e-06
7.36667e-05
-3.72623e-06
5.08601e-06
1.3813e-06
8.03851e-05
-4.07785e-06
5.16767e-06
1.78082e-06
9.62414e-05
4.20347e-06
2.11545e-06
0.000108288
2.35339e-06
2.35339e-06
0.000116326
1.2564e-12
2.47684e-06
0.000120331
-2.35338e-06
2.47684e-06
0.000120331
-4.20347e-06
2.35339e-06
0.000116326
-5.16767e-06
2.11545e-06
0.000108288
-5.08601e-06
1.78082e-06
9.62414e-05
1.3813e-06
8.03851e-05
-4.07785e-06
5.34119e-06
1.06974e-12
8.38681e-05
-4.26265e-06
5.43451e-06
2.01968e-12
0.000100009
4.4231e-06
1.85629e-12
0.000112221
2.47684e-06
1.33313e-12
0.000120331
1.73761e-12
1.20768e-12
0.000124358
-2.47684e-06
1.64328e-12
0.000124358
-4.4231e-06
2.26071e-12
0.000120331
-5.43451e-06
2.58935e-12
0.000112221
-5.34119e-06
2.13668e-12
0.000100009
6.88922e-13
8.38681e-05
-4.26264e-06
5.34119e-06
-1.3813e-06
8.38681e-05
-4.26265e-06
5.43451e-06
-1.78082e-06
0.000100009
4.4231e-06
-2.11545e-06
0.000112221
2.47684e-06
-2.35338e-06
0.000120331
2.12667e-12
-2.47684e-06
0.000124358
-2.47683e-06
-2.47684e-06
0.000124358
-4.4231e-06
-2.35338e-06
0.000120331
-5.43451e-06
-2.11545e-06
0.000112221
-5.34119e-06
-1.78081e-06
0.000100009
-1.3813e-06
8.38681e-05
-4.26265e-06
5.08601e-06
-2.47979e-06
8.03851e-05
-4.07785e-06
5.16767e-06
-3.19025e-06
9.62414e-05
4.20347e-06
-3.78144e-06
0.000108288
2.35339e-06
-4.20347e-06
0.000116326
1.88148e-12
-4.42309e-06
0.000120331
-2.35338e-06
-4.42309e-06
0.000120331
-4.20347e-06
-4.20347e-06
0.000116326
-5.16767e-06
-3.78144e-06
0.000108288
-5.08601e-06
-3.19025e-06
9.62414e-05
-2.47978e-06
8.03851e-05
-4.07785e-06
4.60195e-06
-3.08995e-06
7.36667e-05
-3.72623e-06
4.65769e-06
-3.94927e-06
8.88312e-05
3.78144e-06
-4.65769e-06
0.000100455
2.11545e-06
-5.16767e-06
0.000108288
1.35627e-12
-5.43451e-06
0.000112221
-2.11545e-06
-5.43451e-06
0.000112221
-3.78144e-06
-5.16767e-06
0.000108288
-4.65769e-06
-4.65769e-06
0.000100455
-4.60195e-06
-3.94927e-06
8.88312e-05
-3.08995e-06
7.36667e-05
-3.72623e-06
3.94009e-06
-3.13766e-06
6.42305e-05
-3.24517e-06
3.94927e-06
-3.94009e-06
7.80414e-05
3.19025e-06
-4.60195e-06
8.88312e-05
1.78082e-06
-5.08601e-06
9.62414e-05
1.18305e-12
-5.34119e-06
0.000100009
-1.78082e-06
-5.34119e-06
0.000100009
-3.19025e-06
-5.08601e-06
9.62414e-05
-3.94927e-06
-4.60195e-06
8.88312e-05
-3.94009e-06
-3.94009e-06
7.80414e-05
-3.13766e-06
6.42305e-05
-3.24517e-06
3.13766e-06
5.28085e-05
-2.6714e-06
-2.6714e-06
3.08996e-06
6.42305e-05
-3.24517e-06
2.47979e-06
7.36667e-05
-3.72623e-06
1.3813e-06
8.03851e-05
-4.07785e-06
1.43727e-12
8.38681e-05
-4.26265e-06
-1.3813e-06
8.38681e-05
-4.26265e-06
-2.47979e-06
8.03851e-05
-4.07785e-06
-3.08995e-06
7.36667e-05
-3.72623e-06
-3.13766e-06
6.42305e-05
-3.24517e-06
5.28085e-05
-2.6714e-06
-2.6714e-06
1.64166e-06
1.64166e-06
5.2289e-05
-1.38191e-06
-1.38191e-06
1.63975e-06
2.09453e-06
6.38333e-05
-1.69546e-06
1.33154e-06
2.4802e-06
7.34599e-05
-1.9652e-06
7.4744e-07
2.76794e-06
8.03663e-05
-2.16496e-06
2.25906e-12
2.92141e-06
8.39649e-05
-2.2707e-06
-7.47436e-07
2.92141e-06
8.39649e-05
-2.2707e-06
-1.33154e-06
2.76794e-06
8.03663e-05
-2.16495e-06
-1.63975e-06
2.4802e-06
7.34599e-05
-1.96521e-06
-1.64166e-06
2.09453e-06
6.38333e-05
-1.69546e-06
1.64166e-06
5.2289e-05
-1.38191e-06
-1.38191e-06
2.09453e-06
1.63975e-06
6.38333e-05
-1.69546e-06
2.13832e-06
2.13832e-06
7.79538e-05
1.75299e-06
2.56462e-06
8.91321e-05
9.87812e-07
2.87924e-06
9.68953e-05
1.55471e-12
3.0463e-06
0.000100872
-9.87809e-07
3.0463e-06
0.000100872
-1.75299e-06
2.87924e-06
9.68953e-05
-2.13831e-06
2.56462e-06
8.91321e-05
-2.09453e-06
2.13832e-06
7.79538e-05
1.63975e-06
6.38333e-05
-1.69546e-06
2.4802e-06
1.33154e-06
7.34599e-05
-1.96521e-06
2.56462e-06
1.75299e-06
8.91321e-05
2.11768e-06
2.11768e-06
0.000101349
1.19747e-06
2.38542e-06
0.000109702
1.47041e-12
2.52711e-06
0.000113937
-1.19747e-06
2.52711e-06
0.000113937
-2.11768e-06
2.38542e-06
0.000109702
-2.56462e-06
2.11768e-06
0.000101349
-2.4802e-06
1.75299e-06
8.91321e-05
1.33154e-06
7.34599e-05
-1.9652e-06
2.76794e-06
7.47439e-07
8.03663e-05
-2.16496e-06
2.87924e-06
9.87812e-07
9.68953e-05
2.38542e-06
1.19747e-06
0.000109702
1.35106e-06
1.35106e-06
0.000118394
1.84767e-12
1.43219e-06
0.000122777
-1.35106e-06
1.43219e-06
0.000122777
-2.38542e-06
1.35106e-06
0.000118394
-2.87924e-06
1.19747e-06
0.000109702
-2.76794e-06
9.87813e-07
9.68953e-05
7.47439e-07
8.03663e-05
-2.16495e-06
2.92141e-06
1.22393e-12
8.39649e-05
-2.2707e-06
3.0463e-06
2.09701e-12
0.000100872
2.52711e-06
1.98901e-12
0.000113937
1.43219e-06
1.71343e-12
0.000122777
2.26289e-12
1.5225e-12
0.000127223
-1.43219e-06
1.54478e-12
0.000127223
-2.5271e-06
1.83589e-12
0.000122777
-3.0463e-06
2.55928e-12
0.000113937
-2.92141e-06
3.40943e-12
0.000100872
3.35716e-12
8.39649e-05
-2.2707e-06
2.92141e-06
-7.47437e-07
8.39649e-05
-2.2707e-06
3.0463e-06
-9.87808e-07
0.000100872
2.52711e-06
-1.19747e-06
0.000113937
1.43219e-06
-1.35106e-06
0.000122777
2.23232e-12
-1.43219e-06
0.000127223
-1.43219e-06
-1.43219e-06
0.000127223
-2.5271e-06
-1.35106e-06
0.000122777
-3.0463e-06
-1.19747e-06
0.000113937
-2.92141e-06
-9.87809e-07
0.000100872
-7.47435e-07
8.39649e-05
-2.2707e-06
2.76794e-06
-1.33154e-06
8.03663e-05
-2.16496e-06
2.87924e-06
-1.75299e-06
9.68953e-05
2.38542e-06
-2.11768e-06
0.000109702
1.35106e-06
-2.38542e-06
0.000118394
1.99455e-12
-2.5271e-06
0.000122777
-1.35106e-06
-2.5271e-06
0.000122777
-2.38542e-06
-2.38542e-06
0.000118394
-2.87924e-06
-2.11768e-06
0.000109702
-2.76794e-06
-1.75299e-06
9.68953e-05
-1.33154e-06
8.03663e-05
-2.16495e-06
2.4802e-06
-1.63975e-06
7.34599e-05
-1.96521e-06
2.56462e-06
-2.13832e-06
8.91321e-05
2.11768e-06
-2.56462e-06
0.000101349
1.19747e-06
-2.87924e-06
0.000109702
1.86447e-12
-3.0463e-06
0.000113937
-1.19747e-06
-3.0463e-06
0.000113937
-2.11768e-06
-2.87924e-06
0.000109702
-2.56462e-06
-2.56462e-06
0.000101349
-2.4802e-06
-2.13831e-06
8.91321e-05
-1.63975e-06
7.34599e-05
-1.9652e-06
2.09453e-06
-1.64166e-06
6.38333e-05
-1.69546e-06
2.13832e-06
-2.09453e-06
7.79538e-05
1.75299e-06
-2.4802e-06
8.91321e-05
9.87812e-07
-2.76794e-06
9.68953e-05
1.73483e-12
-2.92141e-06
0.000100872
-9.87808e-07
-2.92141e-06
0.000100872
-1.75299e-06
-2.76794e-06
9.68953e-05
-2.13832e-06
-2.4802e-06
8.91321e-05
-2.09453e-06
-2.09453e-06
7.79538e-05
-1.64166e-06
6.38333e-05
-1.69546e-06
1.64166e-06
5.2289e-05
-1.38191e-06
-1.38191e-06
1.63975e-06
6.38333e-05
-1.69546e-06
1.33155e-06
7.34599e-05
-1.9652e-06
7.4744e-07
8.03663e-05
-2.16495e-06
1.3296e-12
8.39649e-05
-2.2707e-06
-7.47436e-07
8.39649e-05
-2.2707e-06
-1.33154e-06
8.03663e-05
-2.16495e-06
-1.63975e-06
7.34599e-05
-1.9652e-06
-1.64166e-06
6.38333e-05
-1.69546e-06
5.2289e-05
-1.38191e-06
-1.38191e-06
9.09065e-07
9.09065e-07
5.19879e-05
-7.58539e-07
-7.58539e-07
9.14149e-07
1.16313e-06
6.35971e-05
-9.31955e-07
7.46517e-07
1.38217e-06
7.33271e-05
-1.0818e-06
4.206e-07
1.5474e-06
8.03382e-05
-1.19341e-06
1.95818e-12
1.63617e-06
8.4002e-05
-1.25274e-06
-4.20596e-07
1.63617e-06
8.4002e-05
-1.25274e-06
-7.46514e-07
1.5474e-06
8.03382e-05
-1.19341e-06
-9.14147e-07
1.38217e-06
7.33271e-05
-1.0818e-06
-9.09063e-07
1.16313e-06
6.35971e-05
-9.31957e-07
9.09069e-07
5.19879e-05
-7.58538e-07
-7.58542e-07
1.16313e-06
9.14149e-07
6.35971e-05
-9.31955e-07
1.19819e-06
1.19819e-06
7.78837e-05
9.89676e-07
1.44542e-06
8.92774e-05
5.60453e-07
1.6306e-06
9.72413e-05
1.79354e-12
1.72986e-06
0.000101338
-5.60449e-07
1.72986e-06
0.000101338
-9.89672e-07
1.6306e-06
9.72413e-05
-1.19818e-06
1.44542e-06
8.92774e-05
-1.16313e-06
1.19819e-06
7.78837e-05
9.14147e-07
6.35971e-05
-9.31954e-07
1.38217e-06
7.46517e-07
7.33271e-05
-1.0818e-06
1.44542e-06
9.89676e-07
8.92774e-05
1.20468e-06
1.20468e-06
0.00010183
6.85371e-07
1.36533e-06
0.000110487
2.1138e-12
1.45129e-06
0.000114901
-6.85367e-07
1.45129e-06
0.000114901
-1.20468e-06
1.36533e-06
0.000110487
-1.44541e-06
1.20468e-06
0.00010183
-1.38216e-06
9.89676e-07
8.92774e-05
7.46515e-07
7.33271e-05
-1.0818e-06
1.5474e-06
4.20599e-07
8.03382e-05
-1.19341e-06
1.6306e-06
5.60452e-07
9.72413e-05
1.36533e-06
6.8537e-07
0.000110487
7.78662e-07
7.78661e-07
0.000119568
2.79134e-12
8.28537e-07
0.000124178
-7.78657e-07
8.28537e-07
0.000124178
-1.36532e-06
7.78662e-07
0.000119568
-1.63059e-06
6.85373e-07
0.000110487
-1.5474e-06
5.60456e-07
9.72413e-05
4.20601e-07
8.03382e-05
-1.19341e-06
1.63617e-06
1.46146e-12
8.4002e-05
-1.25274e-06
1.72986e-06
1.75356e-12
0.000101338
1.45129e-06
2.08329e-12
0.000114901
8.28537e-07
2.4398e-12
0.000124178
2.69396e-12
2.3403e-12
0.00012888
-8.28532e-07
1.76474e-12
0.00012888
-1.45128e-06
1.35192e-12
0.000124178
-1.72985e-06
1.82373e-12
0.000114901
-1.63617e-06
3.22928e-12
0.000101338
4.33675e-12
8.4002e-05
-1.25274e-06
1.63617e-06
-4.20596e-07
8.4002e-05
-1.25274e-06
1.72986e-06
-5.60449e-07
0.000101338
1.45129e-06
-6.85367e-07
0.000114901
8.28537e-07
-7.78657e-07
0.000124178
2.08483e-12
-8.28532e-07
0.00012888
-8.28532e-07
-8.28532e-07
0.00012888
-1.45128e-06
-7.78657e-07
0.000124178
-1.72985e-06
-6.85368e-07
0.000114901
-1.63617e-06
-5.6045e-07
0.000101338
-4.20596e-07
8.4002e-05
-1.25274e-06
1.5474e-06
-7.46514e-07
8.03382e-05
-1.19341e-06
1.6306e-06
-9.89673e-07
9.72413e-05
1.36533e-06
-1.20468e-06
0.000110487
7.78661e-07
-1.36532e-06
0.000119568
2.04912e-12
-1.45128e-06
0.000124178
-7.78657e-07
-1.45128e-06
0.000124178
-1.36532e-06
-1.36532e-06
0.000119568
-1.63059e-06
-1.20468e-06
0.000110487
-1.5474e-06
-9.89674e-07
9.72413e-05
-7.46515e-07
8.03382e-05
-1.19341e-06
1.38217e-06
-9.14147e-07
7.33271e-05
-1.0818e-06
1.44542e-06
-1.19819e-06
8.92774e-05
1.20468e-06
-1.44541e-06
0.00010183
6.85371e-07
-1.63059e-06
0.000110487
2.44637e-12
-1.72985e-06
0.000114901
-6.85367e-07
-1.72985e-06
0.000114901
-1.20468e-06
-1.63059e-06
0.000110487
-1.44541e-06
-1.44541e-06
0.00010183
-1.38216e-06
-1.19819e-06
8.92774e-05
-9.14148e-07
7.33271e-05
-1.0818e-06
1.16313e-06
-9.09063e-07
6.35971e-05
-9.31955e-07
1.19819e-06
-1.16313e-06
7.78837e-05
9.89677e-07
-1.38216e-06
8.92774e-05
5.60453e-07
-1.5474e-06
9.72413e-05
2.43479e-12
-1.63617e-06
0.000101338
-5.60448e-07
-1.63617e-06
0.000101338
-9.89673e-07
-1.5474e-06
9.72413e-05
-1.19819e-06
-1.38216e-06
8.92774e-05
-1.16313e-06
-1.16313e-06
7.78837e-05
-9.09064e-07
6.35971e-05
-9.31953e-07
9.09065e-07
5.19879e-05
-7.58537e-07
-7.58539e-07
9.1415e-07
6.35971e-05
-9.31953e-07
7.46518e-07
7.33271e-05
-1.0818e-06
4.206e-07
8.03382e-05
-1.19341e-06
1.84159e-12
8.4002e-05
-1.25273e-06
-4.20596e-07
8.4002e-05
-1.25273e-06
-7.46513e-07
8.03382e-05
-1.19341e-06
-9.14147e-07
7.33271e-05
-1.0818e-06
-9.09064e-07
6.35971e-05
-9.31953e-07
5.19879e-05
-7.58538e-07
-7.58537e-07
5.05604e-07
5.05603e-07
5.18188e-05
-4.21014e-07
-4.21014e-07
5.10417e-07
6.49447e-07
6.34612e-05
-5.1837e-07
4.18344e-07
7.74707e-07
7.32476e-05
-6.03092e-07
2.36303e-07
8.69843e-07
8.03168e-05
-6.66423e-07
1.93125e-12
9.21165e-07
8.40173e-05
-7.00155e-07
-2.36299e-07
9.21165e-07
8.40173e-05
-7.00155e-07
-4.1834e-07
8.69844e-07
8.03168e-05
-6.66424e-07
-5.10413e-07
7.74706e-07
7.32476e-05
-6.03093e-07
-5.05602e-07
6.49445e-07
6.34612e-05
-5.18369e-07
5.05604e-07
5.18188e-05
-4.21013e-07
-4.21013e-07
6.49447e-07
5.10417e-07
6.34612e-05
-5.1837e-07
6.7262e-07
6.7262e-07
7.78374e-05
5.58271e-07
8.15595e-07
8.93509e-05
3.17203e-07
9.23701e-07
9.74285e-05
2.81048e-12
9.81991e-07
0.000101595
-3.17198e-07
9.81991e-07
0.000101595
-5.58268e-07
9.23703e-07
9.74285e-05
-6.72618e-07
8.15596e-07
8.93509e-05
-6.49444e-07
6.72621e-07
7.78374e-05
5.10416e-07
6.34612e-05
-5.18366e-07
7.74707e-07
4.18344e-07
7.32476e-05
-6.03092e-07
8.15595e-07
5.58271e-07
8.93509e-05
6.83803e-07
6.83803e-07
0.000102094
3.90603e-07
7.78676e-07
0.000110925
3.4659e-12
8.29806e-07
0.000115444
-3.90598e-07
8.29807e-07
0.000115444
-6.83799e-07
7.78676e-07
0.000110925
-8.15593e-07
6.83805e-07
0.000102094
-7.74705e-07
5.58274e-07
8.93509e-05
4.18345e-07
7.32476e-05
-6.03089e-07
8.69843e-07
2.36302e-07
8.03168e-05
-6.66423e-07
9.23701e-07
3.17202e-07
9.74285e-05
7.78675e-07
3.90603e-07
0.000110925
4.46117e-07
4.46117e-07
0.000120233
3.56596e-12
4.76034e-07
0.000124978
-4.4611e-07
4.76034e-07
0.000124978
-7.78671e-07
4.46116e-07
0.000120233
-9.23698e-07
3.90603e-07