/*--------------------------------*- C++ -*----------------------------------*\
| =========                 |                                                 |
| \\      /  F ield         | OpenFOAM: The Open Source CFD Toolbox           |
|  \\    /   O peration     | Version:  2412                                  |
|   \\  /    A nd           | Website:  www.openfoam.com                      |
|    \\/     M anipulation  |                                                 |
\*---------------------------------------------------------------------------*/
FoamFile
{
    version     2.0;
    format      ascii;
    arch        "LSB;label=32;scalar=64";
    class       volVectorField;
    location    "4.3";
    object      U;
}
// * * * * * * * * * * * * * * * * * * * * * * * * * * * * * * * * * * * * * //

dimensions      [0 1 -1 0 0 0 0];

internalField   nonuniform List<vector> 
15000
(
(0.00119562 0.00119562 0.0105093)
(0.000882762 0.00111909 0.0104897)
(0.000601134 0.00109369 0.0104608)
(0.000352658 0.00106814 0.0104361)
(0.000115756 0.00105632 0.0104227)
(-0.000115756 0.00105632 0.0104227)
(-0.000352658 0.00106814 0.0104361)
(-0.000601134 0.00109369 0.0104608)
(-0.000882762 0.00111909 0.0104897)
(-0.00119562 0.00119562 0.0105093)
(0.00111909 0.000882762 0.0104897)
(0.000831911 0.000831911 0.0104425)
(0.000568567 0.000795421 0.0103962)
(0.000331133 0.000769366 0.0103627)
(0.000108543 0.000756681 0.0103457)
(-0.000108543 0.000756681 0.0103457)
(-0.000331133 0.000769366 0.0103627)
(-0.000568567 0.000795421 0.0103962)
(-0.000831911 0.000831911 0.0104425)
(-0.00111909 0.000882762 0.0104897)
(0.00109369 0.000601134 0.0104608)
(0.000795421 0.000568567 0.0103962)
(0.000539083 0.000539083 0.0103419)
(0.000311961 0.000517675 0.0103051)
(0.000102004 0.000506901 0.0102869)
(-0.000102004 0.000506901 0.0102869)
(-0.000311961 0.000517675 0.0103051)
(-0.000539083 0.000539083 0.0103419)
(-0.000795421 0.000568567 0.0103962)
(-0.00109369 0.000601134 0.0104608)
(0.00106814 0.000352658 0.0104361)
(0.000769366 0.000331133 0.0103627)
(0.000517675 0.000311961 0.0103051)
(0.000298047 0.000298047 0.0102672)
(9.72372e-05 0.000290982 0.0102486)
(-9.72372e-05 0.000290982 0.0102486)
(-0.000298047 0.000298047 0.0102672)
(-0.000517675 0.000311961 0.0103051)
(-0.000769366 0.000331133 0.0103627)
(-0.00106814 0.000352658 0.0104361)
(0.00105632 0.000115756 0.0104227)
(0.000756681 0.000108543 0.0103457)
(0.000506901 0.000102004 0.0102869)
(0.000290982 9.72372e-05 0.0102486)
(9.48097e-05 9.48097e-05 0.0102299)
(-9.48097e-05 9.48097e-05 0.0102299)
(-0.000290982 9.72372e-05 0.0102486)
(-0.000506901 0.000102004 0.0102869)
(-0.000756681 0.000108543 0.0103457)
(-0.00105632 0.000115756 0.0104227)
(0.00105632 -0.000115756 0.0104227)
(0.000756681 -0.000108543 0.0103457)
(0.000506901 -0.000102004 0.0102869)
(0.000290982 -9.72372e-05 0.0102486)
(9.48097e-05 -9.48097e-05 0.0102299)
(-9.48097e-05 -9.48097e-05 0.0102299)
(-0.000290982 -9.72372e-05 0.0102486)
(-0.000506901 -0.000102004 0.0102869)
(-0.000756681 -0.000108543 0.0103457)
(-0.00105632 -0.000115756 0.0104227)
(0.00106814 -0.000352658 0.0104361)
(0.000769366 -0.000331133 0.0103627)
(0.000517675 -0.000311961 0.0103051)
(0.000298047 -0.000298047 0.0102672)
(9.72372e-05 -0.000290982 0.0102486)
(-9.72372e-05 -0.000290982 0.0102486)
(-0.000298047 -0.000298047 0.0102672)
(-0.000517675 -0.000311961 0.0103051)
(-0.000769366 -0.000331133 0.0103627)
(-0.00106814 -0.000352658 0.0104361)
(0.00109369 -0.000601134 0.0104608)
(0.000795421 -0.000568567 0.0103962)
(0.000539083 -0.000539083 0.0103419)
(0.000311961 -0.000517675 0.0103051)
(0.000102004 -0.000506901 0.0102869)
(-0.000102004 -0.000506901 0.0102869)
(-0.000311961 -0.000517675 0.0103051)
(-0.000539083 -0.000539083 0.0103419)
(-0.000795421 -0.000568567 0.0103962)
(-0.00109369 -0.000601134 0.0104608)
(0.00111909 -0.000882762 0.0104897)
(0.000831911 -0.000831911 0.0104425)
(0.000568567 -0.000795421 0.0103962)
(0.000331133 -0.000769366 0.0103627)
(0.000108543 -0.000756681 0.0103457)
(-0.000108543 -0.000756681 0.0103457)
(-0.000331133 -0.000769366 0.0103627)
(-0.000568567 -0.000795421 0.0103962)
(-0.000831911 -0.000831911 0.0104425)
(-0.00111909 -0.000882762 0.0104897)
(0.00119562 -0.00119562 0.0105093)
(0.000882762 -0.00111909 0.0104897)
(0.000601134 -0.00109369 0.0104608)
(0.000352658 -0.00106814 0.0104361)
(0.000115756 -0.00105632 0.0104227)
(-0.000115756 -0.00105632 0.0104227)
(-0.000352658 -0.00106814 0.0104361)
(-0.000601134 -0.00109369 0.0104608)
(-0.000882762 -0.00111909 0.0104897)
(-0.00119562 -0.00119562 0.0105093)
(0.000624452 0.000624452 0.0125421)
(0.000494261 0.000657316 0.012488)
(0.000351838 0.000680638 0.0123865)
(0.000211173 0.000692534 0.0122958)
(7.00254e-05 0.000699104 0.0122458)
(-7.00254e-05 0.000699104 0.0122458)
(-0.000211173 0.000692534 0.0122958)
(-0.000351838 0.000680638 0.0123865)
(-0.000494261 0.000657316 0.012488)
(-0.000624452 0.000624452 0.0125421)
(0.000657316 0.000494261 0.012488)
(0.000514841 0.000514841 0.012318)
(0.000365647 0.00052724 0.0121407)
(0.000218477 0.000533489 0.0120104)
(7.25382e-05 0.00053683 0.0119436)
(-7.25382e-05 0.00053683 0.0119436)
(-0.000218477 0.000533489 0.0120104)
(-0.000365647 0.00052724 0.0121407)
(-0.000514841 0.000514841 0.012318)
(-0.000657316 0.000494261 0.012488)
(0.000680638 0.000351838 0.0123865)
(0.00052724 0.000365647 0.0121407)
(0.000373534 0.000373534 0.0119263)
(0.000222822 0.000377589 0.0117798)
(7.40181e-05 0.000379615 0.011707)
(-7.40181e-05 0.000379615 0.011707)
(-0.000222822 0.000377589 0.0117798)
(-0.000373534 0.000373534 0.0119263)
(-0.00052724 0.000365647 0.0121407)
(-0.000680638 0.000351838 0.0123865)
(0.000692534 0.000211173 0.0122958)
(0.000533489 0.000218477 0.0120104)
(0.000377589 0.000222822 0.0117798)
(0.000225171 0.000225171 0.0116277)
(7.48256e-05 0.000226324 0.0115533)
(-7.48256e-05 0.000226324 0.0115533)
(-0.000225171 0.000225171 0.0116277)
(-0.000377589 0.000222822 0.0117798)
(-0.000533489 0.000218477 0.0120104)
(-0.000692534 0.000211173 0.0122958)
(0.000699104 7.00254e-05 0.0122458)
(0.00053683 7.25382e-05 0.0119436)
(0.000379615 7.40181e-05 0.011707)
(0.000226324 7.48256e-05 0.0115533)
(7.52172e-05 7.52172e-05 0.0114785)
(-7.52172e-05 7.52172e-05 0.0114785)
(-0.000226324 7.48256e-05 0.0115533)
(-0.000379615 7.40181e-05 0.011707)
(-0.00053683 7.25382e-05 0.0119436)
(-0.000699104 7.00254e-05 0.0122458)
(0.000699104 -7.00254e-05 0.0122458)
(0.00053683 -7.25382e-05 0.0119436)
(0.000379615 -7.40181e-05 0.011707)
(0.000226324 -7.48256e-05 0.0115533)
(7.52172e-05 -7.52172e-05 0.0114785)
(-7.52172e-05 -7.52172e-05 0.0114785)
(-0.000226324 -7.48256e-05 0.0115533)
(-0.000379615 -7.40181e-05 0.011707)
(-0.00053683 -7.25383e-05 0.0119436)
(-0.000699104 -7.00254e-05 0.0122458)
(0.000692534 -0.000211173 0.0122958)
(0.000533489 -0.000218477 0.0120104)
(0.000377589 -0.000222822 0.0117798)
(0.000225171 -0.000225171 0.0116277)
(7.48256e-05 -0.000226324 0.0115533)
(-7.48256e-05 -0.000226324 0.0115533)
(-0.000225171 -0.000225171 0.0116277)
(-0.000377589 -0.000222822 0.0117798)
(-0.000533489 -0.000218477 0.0120104)
(-0.000692534 -0.000211173 0.0122958)
(0.000680638 -0.000351838 0.0123865)
(0.00052724 -0.000365647 0.0121407)
(0.000373534 -0.000373534 0.0119263)
(0.000222822 -0.000377589 0.0117798)
(7.40181e-05 -0.000379615 0.011707)
(-7.40181e-05 -0.000379615 0.011707)
(-0.000222822 -0.000377589 0.0117798)
(-0.000373534 -0.000373534 0.0119263)
(-0.00052724 -0.000365647 0.0121407)
(-0.000680638 -0.000351838 0.0123865)
(0.000657316 -0.000494261 0.012488)
(0.000514841 -0.000514841 0.012318)
(0.000365647 -0.00052724 0.0121407)
(0.000218477 -0.000533489 0.0120104)
(7.25382e-05 -0.00053683 0.0119436)
(-7.25383e-05 -0.00053683 0.0119436)
(-0.000218477 -0.000533489 0.0120104)
(-0.000365647 -0.00052724 0.0121407)
(-0.000514841 -0.000514841 0.012318)
(-0.000657316 -0.000494261 0.012488)
(0.000624452 -0.000624452 0.0125421)
(0.000494261 -0.000657316 0.012488)
(0.000351838 -0.000680638 0.0123865)
(0.000211173 -0.000692534 0.0122958)
(7.00254e-05 -0.000699104 0.0122458)
(-7.00254e-05 -0.000699104 0.0122458)
(-0.000211173 -0.000692534 0.0122958)
(-0.000351838 -0.000680638 0.0123865)
(-0.000494261 -0.000657316 0.012488)
(-0.000624452 -0.000624452 0.0125421)
(0.000378046 0.000378046 0.0124027)
(0.000318076 0.000423025 0.0125348)
(0.000240002 0.000456237 0.0125499)
(0.000149176 0.00047729 0.0125276)
(5.03623e-05 0.000488138 0.0125094)
(-5.03623e-05 0.000488138 0.0125094)
(-0.000149176 0.00047729 0.0125276)
(-0.000240002 0.000456237 0.0125499)
(-0.000318076 0.000423025 0.0125348)
(-0.000378046 0.000378046 0.0124027)
(0.000423025 0.000318076 0.0125348)
(0.000357761 0.000357761 0.0125343)
(0.000269535 0.000385238 0.0124611)
(0.000167205 0.000402073 0.0123924)
(5.65307e-05 0.000410453 0.0123544)
(-5.65307e-05 0.000410453 0.0123544)
(-0.000167205 0.000402073 0.0123924)
(-0.000269535 0.000385238 0.0124611)
(-0.000357761 0.000357761 0.0125343)
(-0.000423025 0.000318076 0.0125348)
(0.000456237 0.000240002 0.0125499)
(0.000385238 0.000269535 0.0124611)
(0.00028986 0.00028986 0.012343)
(0.000179514 0.000302112 0.0122542)
(6.06984e-05 0.000308033 0.0122087)
(-6.06984e-05 0.000308033 0.0122087)
(-0.000179514 0.000302112 0.0122542)
(-0.00028986 0.00028986 0.012343)
(-0.000385238 0.000269535 0.0124611)
(-0.000456237 0.000240002 0.0125499)
(0.00047729 0.000149176 0.0125276)
(0.000402073 0.000167205 0.0123924)
(0.000302112 0.000179514 0.0122542)
(0.000186872 0.000186872 0.0121577)
(6.31691e-05 0.000190364 0.0121096)
(-6.31691e-05 0.000190364 0.0121096)
(-0.000186872 0.000186872 0.0121577)
(-0.000302112 0.000179514 0.0122542)
(-0.000402073 0.000167205 0.0123924)
(-0.00047729 0.000149176 0.0125276)
(0.000488138 5.03623e-05 0.0125094)
(0.000410453 5.65307e-05 0.0123544)
(0.000308033 6.06984e-05 0.0122087)
(0.000190364 6.31691e-05 0.0121096)
(6.43292e-05 6.43292e-05 0.0120606)
(-6.43292e-05 6.43292e-05 0.0120606)
(-0.000190364 6.31691e-05 0.0121096)
(-0.000308033 6.06984e-05 0.0122087)
(-0.000410453 5.65307e-05 0.0123544)
(-0.000488138 5.03623e-05 0.0125094)
(0.000488138 -5.03623e-05 0.0125094)
(0.000410453 -5.65307e-05 0.0123544)
(0.000308033 -6.06984e-05 0.0122087)
(0.000190364 -6.31691e-05 0.0121096)
(6.43292e-05 -6.43292e-05 0.0120606)
(-6.43292e-05 -6.43292e-05 0.0120606)
(-0.000190364 -6.31691e-05 0.0121096)
(-0.000308033 -6.06984e-05 0.0122087)
(-0.000410453 -5.65307e-05 0.0123544)
(-0.000488138 -5.03623e-05 0.0125094)
(0.00047729 -0.000149176 0.0125276)
(0.000402073 -0.000167205 0.0123924)
(0.000302112 -0.000179514 0.0122542)
(0.000186872 -0.000186872 0.0121577)
(6.31691e-05 -0.000190364 0.0121096)
(-6.31691e-05 -0.000190364 0.0121096)
(-0.000186872 -0.000186872 0.0121577)
(-0.000302112 -0.000179514 0.0122542)
(-0.000402073 -0.000167205 0.0123924)
(-0.00047729 -0.000149176 0.0125276)
(0.000456237 -0.000240002 0.0125499)
(0.000385238 -0.000269535 0.0124611)
(0.00028986 -0.00028986 0.012343)
(0.000179514 -0.000302112 0.0122542)
(6.06984e-05 -0.000308033 0.0122087)
(-6.06984e-05 -0.000308033 0.0122087)
(-0.000179514 -0.000302112 0.0122542)
(-0.00028986 -0.00028986 0.012343)
(-0.000385238 -0.000269534 0.0124611)
(-0.000456237 -0.000240002 0.0125499)
(0.000423025 -0.000318076 0.0125348)
(0.000357761 -0.000357761 0.0125343)
(0.000269535 -0.000385238 0.0124611)
(0.000167205 -0.000402073 0.0123924)
(5.65307e-05 -0.000410453 0.0123544)
(-5.65307e-05 -0.000410453 0.0123544)
(-0.000167205 -0.000402073 0.0123924)
(-0.000269534 -0.000385238 0.0124611)
(-0.000357761 -0.000357761 0.0125343)
(-0.000423025 -0.000318076 0.0125348)
(0.000378046 -0.000378046 0.0124027)
(0.000318076 -0.000423025 0.0125348)
(0.000240002 -0.000456237 0.0125499)
(0.000149176 -0.00047729 0.0125276)
(5.03623e-05 -0.000488138 0.0125094)
(-5.03623e-05 -0.000488138 0.0125094)
(-0.000149176 -0.00047729 0.0125276)
(-0.000240002 -0.000456237 0.0125499)
(-0.000318076 -0.000423025 0.0125348)
(-0.000378046 -0.000378046 0.0124027)
(0.00013245 0.00013245 0.0125284)
(0.000119921 0.000165243 0.0127268)
(9.67235e-05 0.000189419 0.0127928)
(6.23229e-05 0.000206391 0.0128042)
(2.14215e-05 0.000215129 0.0128025)
(-2.14215e-05 0.000215129 0.0128025)
(-6.23229e-05 0.000206391 0.0128042)
(-9.67235e-05 0.000189419 0.0127928)
(-0.000119921 0.000165243 0.0127268)
(-0.00013245 0.00013245 0.0125284)
(0.000165243 0.000119921 0.0127268)
(0.000151121 0.000151121 0.0128062)
(0.000120857 0.0001745 0.0127907)
(7.77512e-05 0.00018999 0.0127588)
(2.67468e-05 0.000197821 0.0127386)
(-2.67468e-05 0.000197821 0.0127386)
(-7.77512e-05 0.00018999 0.0127588)
(-0.000120857 0.0001745 0.0127907)
(-0.000151121 0.000151121 0.0128062)
(-0.000165243 0.000119921 0.0127268)
(0.000189419 9.67235e-05 0.0127928)
(0.0001745 0.000120857 0.0127907)
(0.000139367 0.000139367 0.0127328)
(8.94751e-05 0.000151468 0.0126813)
(3.07731e-05 0.000157499 0.0126536)
(-3.07731e-05 0.000157499 0.0126536)
(-8.94751e-05 0.000151468 0.0126813)
(-0.000139367 0.000139367 0.0127328)
(-0.0001745 0.000120857 0.0127907)
(-0.000189419 9.67235e-05 0.0127928)
(0.000206391 6.23229e-05 0.0128042)
(0.00018999 7.77512e-05 0.0127588)
(0.000151468 8.94751e-05 0.0126813)
(9.70936e-05 9.70936e-05 0.0126217)
(3.3378e-05 0.000100858 0.0125908)
(-3.3378e-05 0.000100858 0.0125908)
(-9.70936e-05 9.70936e-05 0.0126217)
(-0.000151468 8.94751e-05 0.0126813)
(-0.00018999 7.77512e-05 0.0127588)
(-0.000206391 6.23229e-05 0.0128042)
(0.000215129 2.14215e-05 0.0128025)
(0.000197821 2.67468e-05 0.0127386)
(0.000157499 3.07731e-05 0.0126536)
(0.000100858 3.3378e-05 0.0125908)
(3.46586e-05 3.46586e-05 0.0125588)
(-3.46586e-05 3.46587e-05 0.0125588)
(-0.000100858 3.3378e-05 0.0125908)
(-0.000157499 3.07731e-05 0.0126536)
(-0.000197821 2.67468e-05 0.0127386)
(-0.000215129 2.14215e-05 0.0128025)
(0.000215129 -2.14215e-05 0.0128025)
(0.000197821 -2.67468e-05 0.0127386)
(0.000157499 -3.07731e-05 0.0126536)
(0.000100858 -3.3378e-05 0.0125908)
(3.46586e-05 -3.46586e-05 0.0125588)
(-3.46586e-05 -3.46586e-05 0.0125588)
(-0.000100858 -3.3378e-05 0.0125908)
(-0.000157499 -3.07731e-05 0.0126536)
(-0.000197821 -2.67468e-05 0.0127386)
(-0.000215129 -2.14215e-05 0.0128025)
(0.000206391 -6.23229e-05 0.0128042)
(0.00018999 -7.77512e-05 0.0127588)
(0.000151468 -8.94751e-05 0.0126813)
(9.70936e-05 -9.70936e-05 0.0126217)
(3.3378e-05 -0.000100858 0.0125908)
(-3.3378e-05 -0.000100858 0.0125908)
(-9.70936e-05 -9.70936e-05 0.0126217)
(-0.000151468 -8.94751e-05 0.0126813)
(-0.00018999 -7.77512e-05 0.0127588)
(-0.000206391 -6.23228e-05 0.0128042)
(0.000189419 -9.67235e-05 0.0127928)
(0.0001745 -0.000120857 0.0127907)
(0.000139367 -0.000139367 0.0127328)
(8.94751e-05 -0.000151468 0.0126813)
(3.07731e-05 -0.000157499 0.0126536)
(-3.07731e-05 -0.000157499 0.0126536)
(-8.94751e-05 -0.000151468 0.0126813)
(-0.000139367 -0.000139367 0.0127328)
(-0.0001745 -0.000120856 0.0127907)
(-0.000189419 -9.67234e-05 0.0127928)
(0.000165243 -0.000119921 0.0127268)
(0.000151121 -0.000151121 0.0128062)
(0.000120857 -0.0001745 0.0127907)
(7.77512e-05 -0.00018999 0.0127588)
(2.67468e-05 -0.000197821 0.0127386)
(-2.67468e-05 -0.000197821 0.0127386)
(-7.77512e-05 -0.00018999 0.0127588)
(-0.000120856 -0.0001745 0.0127907)
(-0.000151121 -0.000151121 0.0128062)
(-0.000165243 -0.000119921 0.0127268)
(0.00013245 -0.00013245 0.0125284)
(0.000119921 -0.000165243 0.0127268)
(9.67235e-05 -0.000189419 0.0127928)
(6.23229e-05 -0.000206391 0.0128042)
(2.14215e-05 -0.000215129 0.0128025)
(-2.14215e-05 -0.000215129 0.0128025)
(-6.23229e-05 -0.000206391 0.0128042)
(-9.67234e-05 -0.000189419 0.0127928)
(-0.000119921 -0.000165243 0.0127268)
(-0.00013245 -0.00013245 0.0125284)
(4.78327e-05 4.78327e-05 0.0124774)
(4.46748e-05 6.16686e-05 0.0127132)
(3.74316e-05 7.24213e-05 0.0128118)
(2.457e-05 8.0337e-05 0.0128469)
(8.52545e-06 8.44436e-05 0.0128574)
(-8.52545e-06 8.44436e-05 0.0128574)
(-2.457e-05 8.0337e-05 0.0128469)
(-3.74315e-05 7.24213e-05 0.0128118)
(-4.46748e-05 6.16686e-05 0.0127132)
(-4.78327e-05 4.78327e-05 0.0124774)
(6.16686e-05 4.46748e-05 0.0127132)
(5.92239e-05 5.92239e-05 0.0128446)
(4.90735e-05 7.05524e-05 0.0128717)
(3.2205e-05 7.83493e-05 0.0128693)
(1.11827e-05 8.23527e-05 0.0128641)
(-1.11827e-05 8.23527e-05 0.0128641)
(-3.2205e-05 7.83493e-05 0.0128693)
(-4.90735e-05 7.05524e-05 0.0128717)
(-5.92239e-05 5.92239e-05 0.0128446)
(-6.16686e-05 4.46748e-05 0.0127132)
(7.24213e-05 3.74316e-05 0.0128118)
(7.05524e-05 4.90735e-05 0.0128717)
(5.84198e-05 5.84198e-05 0.0128625)
(3.83063e-05 6.47843e-05 0.0128437)
(1.33056e-05 6.80279e-05 0.0128322)
(-1.33056e-05 6.80279e-05 0.0128322)
(-3.83063e-05 6.47843e-05 0.0128437)
(-5.84198e-05 5.84198e-05 0.0128625)
(-7.05524e-05 4.90735e-05 0.0128717)
(-7.24213e-05 3.74316e-05 0.0128118)
(8.0337e-05 2.457e-05 0.0128469)
(7.83493e-05 3.2205e-05 0.0128693)
(6.47843e-05 3.83064e-05 0.0128437)
(4.24432e-05 4.24432e-05 0.0128181)
(1.47426e-05 4.45414e-05 0.012804)
(-1.47426e-05 4.45414e-05 0.012804)
(-4.24432e-05 4.24432e-05 0.0128181)
(-6.47843e-05 3.83063e-05 0.0128437)
(-7.83493e-05 3.2205e-05 0.0128693)
(-8.0337e-05 2.457e-05 0.0128469)
(8.44436e-05 8.52545e-06 0.0128574)
(8.23527e-05 1.11827e-05 0.0128641)
(6.80279e-05 1.33056e-05 0.0128322)
(4.45414e-05 1.47426e-05 0.012804)
(1.54694e-05 1.54694e-05 0.012789)
(-1.54694e-05 1.54694e-05 0.012789)
(-4.45413e-05 1.47426e-05 0.012804)
(-6.80278e-05 1.33056e-05 0.0128322)
(-8.23527e-05 1.11827e-05 0.0128641)
(-8.44436e-05 8.52545e-06 0.0128574)
(8.44436e-05 -8.52545e-06 0.0128574)
(8.23527e-05 -1.11827e-05 0.0128641)
(6.80279e-05 -1.33056e-05 0.0128322)
(4.45414e-05 -1.47426e-05 0.012804)
(1.54694e-05 -1.54694e-05 0.012789)
(-1.54694e-05 -1.54694e-05 0.012789)
(-4.45413e-05 -1.47426e-05 0.012804)
(-6.80278e-05 -1.33056e-05 0.0128322)
(-8.23527e-05 -1.11827e-05 0.0128641)
(-8.44436e-05 -8.52545e-06 0.0128574)
(8.0337e-05 -2.457e-05 0.0128469)
(7.83493e-05 -3.2205e-05 0.0128693)
(6.47843e-05 -3.83063e-05 0.0128437)
(4.24432e-05 -4.24432e-05 0.0128181)
(1.47426e-05 -4.45413e-05 0.012804)
(-1.47426e-05 -4.45413e-05 0.012804)
(-4.24432e-05 -4.24432e-05 0.0128181)
(-6.47843e-05 -3.83063e-05 0.0128437)
(-7.83493e-05 -3.2205e-05 0.0128693)
(-8.0337e-05 -2.457e-05 0.0128469)
(7.24213e-05 -3.74316e-05 0.0128118)
(7.05524e-05 -4.90735e-05 0.0128717)
(5.84198e-05 -5.84198e-05 0.0128625)
(3.83063e-05 -6.47843e-05 0.0128437)
(1.33056e-05 -6.80278e-05 0.0128322)
(-1.33056e-05 -6.80278e-05 0.0128322)
(-3.83063e-05 -6.47843e-05 0.0128437)
(-5.84198e-05 -5.84198e-05 0.0128625)
(-7.05524e-05 -4.90735e-05 0.0128717)
(-7.24213e-05 -3.74315e-05 0.0128118)
(6.16686e-05 -4.46748e-05 0.0127132)
(5.9224e-05 -5.92239e-05 0.0128446)
(4.90735e-05 -7.05524e-05 0.0128717)
(3.2205e-05 -7.83493e-05 0.0128693)
(1.11827e-05 -8.23527e-05 0.0128641)
(-1.11827e-05 -8.23527e-05 0.0128641)
(-3.2205e-05 -7.83493e-05 0.0128693)
(-4.90735e-05 -7.05524e-05 0.0128717)
(-5.92239e-05 -5.92239e-05 0.0128446)
(-6.16686e-05 -4.46748e-05 0.0127132)
(4.78327e-05 -4.78327e-05 0.0124774)
(4.46748e-05 -6.16686e-05 0.0127132)
(3.74316e-05 -7.24213e-05 0.0128118)
(2.457e-05 -8.03371e-05 0.0128469)
(8.52545e-06 -8.44436e-05 0.0128574)
(-8.52546e-06 -8.44436e-05 0.0128574)
(-2.457e-05 -8.0337e-05 0.0128469)
(-3.74315e-05 -7.24213e-05 0.0128118)
(-4.46748e-05 -6.16686e-05 0.0127132)
(-4.78327e-05 -4.78327e-05 0.0124774)
(1.51705e-05 1.51705e-05 0.0124452)
(1.50334e-05 2.09659e-05 0.0126905)
(1.33031e-05 2.55727e-05 0.0127994)
(8.96623e-06 2.90685e-05 0.0128429)
(3.15386e-06 3.08882e-05 0.0128578)
(-3.15386e-06 3.08882e-05 0.0128578)
(-8.96622e-06 2.90685e-05 0.0128429)
(-1.33031e-05 2.55727e-05 0.0127994)
(-1.50334e-05 2.09659e-05 0.0126905)
(-1.51705e-05 1.51705e-05 0.0124452)
(2.09659e-05 1.50334e-05 0.0126905)
(2.14417e-05 2.14417e-05 0.0128398)
(1.85553e-05 2.65721e-05 0.0128836)
(1.2474e-05 3.02005e-05 0.0128937)
(4.38071e-06 3.20789e-05 0.012895)
(-4.38071e-06 3.20789e-05 0.012895)
(-1.2474e-05 3.02005e-05 0.0128937)
(-1.85553e-05 2.65721e-05 0.0128836)
(-2.14417e-05 2.14417e-05 0.0128398)
(-2.09659e-05 1.50334e-05 0.0126905)
(2.55727e-05 1.33031e-05 0.0127994)
(2.65721e-05 1.85553e-05 0.0128836)
(2.29061e-05 2.29061e-05 0.0128957)
(1.53671e-05 2.5945e-05 0.0128922)
(5.39411e-06 2.75101e-05 0.0128885)
(-5.39411e-06 2.75101e-05 0.0128885)
(-1.53671e-05 2.5945e-05 0.0128922)
(-2.29061e-05 2.29061e-05 0.0128957)
(-2.65721e-05 1.85553e-05 0.0128836)
(-2.55727e-05 1.33031e-05 0.0127994)
(2.90685e-05 8.96622e-06 0.0128429)
(3.02005e-05 1.2474e-05 0.0128937)
(2.5945e-05 1.53671e-05 0.0128922)
(1.73742e-05 1.73741e-05 0.0128835)
(6.09574e-06 1.84029e-05 0.0128781)
(-6.09574e-06 1.84029e-05 0.0128781)
(-1.73741e-05 1.73742e-05 0.0128835)
(-2.5945e-05 1.53671e-05 0.0128922)
(-3.02005e-05 1.2474e-05 0.0128937)
(-2.90685e-05 8.96621e-06 0.0128429)
(3.08882e-05 3.15386e-06 0.0128578)
(3.20789e-05 4.38071e-06 0.012895)
(2.75101e-05 5.39411e-06 0.0128885)
(1.84029e-05 6.09574e-06 0.0128781)
(6.45447e-06 6.45447e-06 0.012872)
(-6.45446e-06 6.45447e-06 0.012872)
(-1.84029e-05 6.09575e-06 0.0128781)
(-2.75101e-05 5.39412e-06 0.0128885)
(-3.20789e-05 4.3807e-06 0.012895)
(-3.08882e-05 3.15385e-06 0.0128578)
(3.08882e-05 -3.15386e-06 0.0128578)
(3.20789e-05 -4.3807e-06 0.012895)
(2.75101e-05 -5.39411e-06 0.0128885)
(1.84029e-05 -6.09574e-06 0.0128781)
(6.45448e-06 -6.45446e-06 0.012872)
(-6.45446e-06 -6.45446e-06 0.012872)
(-1.84029e-05 -6.09574e-06 0.0128781)
(-2.75101e-05 -5.39411e-06 0.0128885)
(-3.20789e-05 -4.38071e-06 0.012895)
(-3.08882e-05 -3.15386e-06 0.0128578)
(2.90685e-05 -8.96622e-06 0.0128429)
(3.02005e-05 -1.2474e-05 0.0128937)
(2.5945e-05 -1.53671e-05 0.0128922)
(1.73742e-05 -1.73741e-05 0.0128835)
(6.09575e-06 -1.84029e-05 0.0128781)
(-6.09574e-06 -1.84029e-05 0.0128781)
(-1.73741e-05 -1.73741e-05 0.0128835)
(-2.5945e-05 -1.53671e-05 0.0128922)
(-3.02005e-05 -1.2474e-05 0.0128937)
(-2.90685e-05 -8.9662e-06 0.0128429)
(2.55727e-05 -1.33031e-05 0.0127994)
(2.65721e-05 -1.85553e-05 0.0128836)
(2.29061e-05 -2.29061e-05 0.0128957)
(1.53671e-05 -2.5945e-05 0.0128922)
(5.39411e-06 -2.75101e-05 0.0128885)
(-5.39411e-06 -2.75101e-05 0.0128885)
(-1.53671e-05 -2.5945e-05 0.0128922)
(-2.29061e-05 -2.29061e-05 0.0128957)
(-2.65721e-05 -1.85552e-05 0.0128836)
(-2.55727e-05 -1.33031e-05 0.0127994)
(2.09659e-05 -1.50333e-05 0.0126905)
(2.14417e-05 -2.14417e-05 0.0128398)
(1.85553e-05 -2.65721e-05 0.0128836)
(1.2474e-05 -3.02005e-05 0.0128937)
(4.38069e-06 -3.20789e-05 0.012895)
(-4.3807e-06 -3.20789e-05 0.012895)
(-1.2474e-05 -3.02005e-05 0.0128937)
(-1.85553e-05 -2.65721e-05 0.0128836)
(-2.14417e-05 -2.14417e-05 0.0128398)
(-2.09659e-05 -1.50333e-05 0.0126905)
(1.51705e-05 -1.51705e-05 0.0124452)
(1.50334e-05 -2.09659e-05 0.0126905)
(1.33031e-05 -2.55727e-05 0.0127994)
(8.96621e-06 -2.90685e-05 0.0128429)
(3.15385e-06 -3.08882e-05 0.0128578)
(-3.15386e-06 -3.08882e-05 0.0128578)
(-8.96621e-06 -2.90685e-05 0.0128429)
(-1.33031e-05 -2.55727e-05 0.0127994)
(-1.50333e-05 -2.09659e-05 0.0126905)
(-1.51705e-05 -1.51705e-05 0.0124452)
(4.02001e-06 4.02001e-06 0.0124345)
(4.29227e-06 6.15738e-06 0.0126822)
(4.05266e-06 7.89523e-06 0.0127945)
(2.80939e-06 9.27942e-06 0.0128407)
(1.00409e-06 9.99988e-06 0.0128572)
(-1.00408e-06 9.99988e-06 0.0128572)
(-2.80938e-06 9.27942e-06 0.0128407)
(-4.05266e-06 7.89524e-06 0.0127945)
(-4.29228e-06 6.15739e-06 0.0126822)
(-4.02002e-06 4.02001e-06 0.0124345)
(6.15738e-06 4.29228e-06 0.0126822)
(6.76681e-06 6.76682e-06 0.0128374)
(6.14996e-06 8.83301e-06 0.0128872)
(4.24405e-06 1.03512e-05 0.0129019)
(1.50947e-06 1.11483e-05 0.0129056)
(-1.50946e-06 1.11483e-05 0.0129056)
(-4.24404e-06 1.03513e-05 0.0129019)
(-6.14997e-06 8.83302e-06 0.0128872)
(-6.76683e-06 6.76683e-06 0.0128374)
(-6.15738e-06 4.29228e-06 0.0126822)
(7.89522e-06 4.05267e-06 0.0127945)
(8.83301e-06 6.14996e-06 0.0128872)
(7.96973e-06 7.96973e-06 0.0129073)
(5.48452e-06 9.28756e-06 0.0129098)
(1.9482e-06 9.97788e-06 0.0129092)
(-1.94819e-06 9.97788e-06 0.0129092)
(-5.48451e-06 9.28756e-06 0.0129098)
(-7.96972e-06 7.96973e-06 0.0129073)
(-8.83301e-06 6.14997e-06 0.0128872)
(-7.89523e-06 4.05267e-06 0.0127945)
(9.27941e-06 2.80939e-06 0.0128407)
(1.03512e-05 4.24405e-06 0.0129019)
(9.28756e-06 5.48453e-06 0.0129098)
(6.37581e-06 6.37581e-06 0.0129079)
(2.26293e-06 6.84092e-06 0.0129061)
(-2.26292e-06 6.84092e-06 0.0129061)
(-6.37579e-06 6.3758e-06 0.0129079)
(-9.28755e-06 5.48452e-06 0.0129098)
(-1.03512e-05 4.24405e-06 0.0129019)
(-9.27941e-06 2.80939e-06 0.0128407)
(9.99987e-06 1.00409e-06 0.0128572)
(1.11483e-05 1.50948e-06 0.0129056)
(9.97788e-06 1.9482e-06 0.0129092)
(6.84092e-06 2.26293e-06 0.0129061)
(2.4269e-06 2.42691e-06 0.0129038)
(-2.42689e-06 2.4269e-06 0.0129038)
(-6.84091e-06 2.26293e-06 0.0129061)
(-9.97787e-06 1.9482e-06 0.0129092)
(-1.11483e-05 1.50947e-06 0.0129056)
(-9.99987e-06 1.00408e-06 0.0128572)
(9.99988e-06 -1.00408e-06 0.0128572)
(1.11483e-05 -1.50946e-06 0.0129056)
(9.97787e-06 -1.94819e-06 0.0129092)
(6.84092e-06 -2.26292e-06 0.0129061)
(2.4269e-06 -2.42689e-06 0.0129038)
(-2.42689e-06 -2.42689e-06 0.0129038)
(-6.84091e-06 -2.26292e-06 0.0129061)
(-9.97787e-06 -1.94819e-06 0.0129092)
(-1.11483e-05 -1.50946e-06 0.0129056)
(-9.99987e-06 -1.00408e-06 0.0128572)
(9.27941e-06 -2.80938e-06 0.0128407)
(1.03512e-05 -4.24405e-06 0.0129019)
(9.28756e-06 -5.48451e-06 0.0129098)
(6.3758e-06 -6.37579e-06 0.0129079)
(2.26293e-06 -6.84091e-06 0.0129061)
(-2.26292e-06 -6.84091e-06 0.0129061)
(-6.37579e-06 -6.37579e-06 0.0129079)
(-9.28755e-06 -5.48451e-06 0.0129098)
(-1.03512e-05 -4.24404e-06 0.0129019)
(-9.27941e-06 -2.80938e-06 0.0128407)
(7.89523e-06 -4.05267e-06 0.0127945)
(8.83302e-06 -6.14996e-06 0.0128872)
(7.96973e-06 -7.96971e-06 0.0129073)
(5.48452e-06 -9.28755e-06 0.0129098)
(1.9482e-06 -9.97787e-06 0.0129092)
(-1.94819e-06 -9.97787e-06 0.0129092)
(-5.48451e-06 -9.28755e-06 0.0129098)
(-7.96972e-06 -7.96972e-06 0.0129073)
(-8.83302e-06 -6.14996e-06 0.0128872)
(-7.89522e-06 -4.05265e-06 0.0127945)
(6.15739e-06 -4.29228e-06 0.0126822)
(6.76683e-06 -6.76683e-06 0.0128374)
(6.14997e-06 -8.83302e-06 0.0128872)
(4.24404e-06 -1.03512e-05 0.0129019)
(1.50947e-06 -1.11483e-05 0.0129056)
(-1.50946e-06 -1.11483e-05 0.0129056)
(-4.24404e-06 -1.03512e-05 0.0129019)
(-6.14997e-06 -8.83302e-06 0.0128872)
(-6.76682e-06 -6.76682e-06 0.0128374)
(-6.15738e-06 -4.29226e-06 0.0126822)
(4.02002e-06 -4.02002e-06 0.0124345)
(4.29228e-06 -6.15739e-06 0.0126822)
(4.05266e-06 -7.89524e-06 0.0127945)
(2.80939e-06 -9.27942e-06 0.0128407)
(1.00409e-06 -9.99987e-06 0.0128572)
(-1.00408e-06 -9.99987e-06 0.0128572)
(-2.80939e-06 -9.27941e-06 0.0128407)
(-4.05266e-06 -7.89523e-06 0.0127945)
(-4.29227e-06 -6.15737e-06 0.0126822)
(-4.02001e-06 -4.02001e-06 0.0124345)
(1.00003e-06 1.00003e-06 0.0124305)
(1.15122e-06 1.69358e-06 0.0126788)
(1.15774e-06 2.26541e-06 0.0127921)
(8.21154e-07 2.74367e-06 0.0128394)
(2.98383e-07 2.99198e-06 0.0128564)
(-2.98378e-07 2.99198e-06 0.0128564)
(-8.2115e-07 2.74367e-06 0.0128394)
(-1.15774e-06 2.2654e-06 0.0127921)
(-1.15122e-06 1.69357e-06 0.0126788)
(-1.00003e-06 1.00002e-06 0.0124305)
(1.69358e-06 1.15122e-06 0.0126788)
(1.99045e-06 1.99045e-06 0.0128359)
(1.88947e-06 2.7152e-06 0.0128878)
(1.33226e-06 3.26729e-06 0.0129042)
(4.79317e-07 3.5606e-06 0.012909)
(-4.79315e-07 3.5606e-06 0.012909)
(-1.33226e-06 3.26729e-06 0.0129042)
(-1.88947e-06 2.71519e-06 0.0128878)
(-1.99045e-06 1.99045e-06 0.0128359)
(-1.69357e-06 1.15122e-06 0.0126788)
(2.26541e-06 1.15773e-06 0.0127921)
(2.7152e-06 1.88947e-06 0.0128878)
(2.55135e-06 2.55136e-06 0.012911)
(1.79476e-06 3.0482e-06 0.0129158)
(6.44359e-07 3.31264e-06 0.0129165)
(-6.44361e-07 3.31263e-06 0.0129165)
(-1.79476e-06 3.0482e-06 0.0129158)
(-2.55135e-06 2.55135e-06 0.012911)
(-2.71519e-06 1.88947e-06 0.0128878)
(-2.2654e-06 1.15774e-06 0.0127921)
(2.74367e-06 8.21151e-07 0.0128394)
(3.2673e-06 1.33226e-06 0.0129042)
(3.0482e-06 1.79476e-06 0.0129158)
(2.1392e-06 2.1392e-06 0.0129167)
(7.67249e-07 2.3222e-06 0.0129163)
(-7.67251e-07 2.3222e-06 0.0129163)
(-2.1392e-06 2.13921e-06 0.0129167)
(-3.04819e-06 1.79476e-06 0.0129158)
(-3.26729e-06 1.33226e-06 0.0129042)
(-2.74366e-06 8.21156e-07 0.0128394)
(2.99198e-06 2.98384e-07 0.0128564)
(3.5606e-06 4.79318e-07 0.012909)
(3.31263e-06 6.44359e-07 0.0129165)
(2.3222e-06 7.6725e-07 0.0129163)
(8.32523e-07 8.32524e-07 0.0129156)
(-8.32521e-07 8.32526e-07 0.0129156)
(-2.32219e-06 7.67254e-07 0.0129163)
(-3.31263e-06 6.44363e-07 0.0129165)
(-3.56059e-06 4.79319e-07 0.012909)
(-2.99198e-06 2.98385e-07 0.0128564)
(2.99198e-06 -2.98379e-07 0.0128564)
(3.5606e-06 -4.79314e-07 0.012909)
(3.31263e-06 -6.44357e-07 0.0129165)
(2.3222e-06 -7.67249e-07 0.0129163)
(8.32525e-07 -8.3252e-07 0.0129156)
(-8.32521e-07 -8.32519e-07 0.0129156)
(-2.32219e-06 -7.67247e-07 0.0129163)
(-3.31263e-06 -6.44354e-07 0.0129165)
(-3.56059e-06 -4.79312e-07 0.012909)
(-2.99198e-06 -2.98383e-07 0.0128564)
(2.74367e-06 -8.2115e-07 0.0128394)
(3.26729e-06 -1.33225e-06 0.0129042)
(3.0482e-06 -1.79476e-06 0.0129158)
(2.1392e-06 -2.1392e-06 0.0129167)
(7.67252e-07 -2.32219e-06 0.0129163)
(-7.67248e-07 -2.32219e-06 0.0129163)
(-2.1392e-06 -2.1392e-06 0.0129167)
(-3.04819e-06 -1.79475e-06 0.0129158)
(-3.26729e-06 -1.33226e-06 0.0129042)
(-2.74366e-06 -8.21156e-07 0.0128394)
(2.26541e-06 -1.15773e-06 0.0127921)
(2.71519e-06 -1.88947e-06 0.0128878)
(2.55135e-06 -2.55135e-06 0.012911)
(1.79476e-06 -3.04819e-06 0.0129158)
(6.44362e-07 -3.31263e-06 0.0129165)
(-6.44357e-07 -3.31263e-06 0.0129165)
(-1.79475e-06 -3.04819e-06 0.0129158)
(-2.55135e-06 -2.55135e-06 0.012911)
(-2.71519e-06 -1.88947e-06 0.0128878)
(-2.2654e-06 -1.15773e-06 0.0127921)
(1.69357e-06 -1.15122e-06 0.0126788)
(1.99044e-06 -1.99045e-06 0.0128359)
(1.88947e-06 -2.71519e-06 0.0128878)
(1.33226e-06 -3.26729e-06 0.0129042)
(4.79316e-07 -3.56059e-06 0.012909)
(-4.79316e-07 -3.56059e-06 0.012909)
(-1.33225e-06 -3.26728e-06 0.0129042)
(-1.88946e-06 -2.71519e-06 0.0128878)
(-1.99044e-06 -1.99045e-06 0.0128359)
(-1.69357e-06 -1.15122e-06 0.0126788)
(1.00002e-06 -1.00002e-06 0.0124305)
(1.15121e-06 -1.69357e-06 0.0126788)
(1.15774e-06 -2.2654e-06 0.0127921)