/*--------------------------------*- C++ -*----------------------------------*\
| =========                 |                                                 |
| \\      /  F ield         | OpenFOAM: The Open Source CFD Toolbox           |
|  \\    /   O peration     | Version:  2412                                  |
|   \\  /    A nd           | Website:  www.openfoam.com                      |
|    \\/     M anipulation  |                                                 |
\*---------------------------------------------------------------------------*/
FoamFile
{
    version     2.0;
    format      ascii;
    arch        "LSB;label=32;scalar=64";
    class       surfaceScalarField;
    location    "4.7";
    object      phi;
}
// * * * * * * * * * * * * * * * * * * * * * * * * * * * * * * * * * * * * * //

dimensions      [0 3 -1 0 0 0 0];

oriented        oriented;

internalField   nonuniform List<scalar> 
43700
(
1.84449e-07
1.84449e-07
5.49592e-07
-2.24236e-07
-2.24236e-07
1.36459e-07
1.63746e-07
5.93739e-07
-2.00111e-07
9.03547e-08
1.50379e-07
6.25094e-07
-1.89938e-07
4.48218e-08
1.41443e-07
6.45196e-07
-1.81395e-07
1.52966e-16
1.37136e-07
6.55062e-07
-1.77448e-07
-4.48218e-08
1.37136e-07
6.55062e-07
-1.77448e-07
-9.03547e-08
1.41443e-07
6.45196e-07
-1.81395e-07
-1.36459e-07
1.50379e-07
6.25094e-07
-1.89938e-07
-1.84449e-07
1.63746e-07
5.93739e-07
-2.00111e-07
1.84449e-07
5.49592e-07
-2.24236e-07
-2.24236e-07
1.63746e-07
1.36459e-07
5.93739e-07
-2.00111e-07
1.21662e-07
1.21662e-07
6.30013e-07
8.0047e-08
1.10393e-07
6.55291e-07
3.95943e-08
1.02858e-07
6.71535e-07
9.62257e-16
9.91688e-08
6.79534e-07
-3.95943e-08
9.91688e-08
6.79534e-07
-8.0047e-08
1.02858e-07
6.71535e-07
-1.21662e-07
1.10393e-07
6.55291e-07
-1.63746e-07
1.21662e-07
6.30013e-07
1.36459e-07
5.93739e-07
-2.00111e-07
1.50379e-07
9.03547e-08
6.25094e-07
-1.89938e-07
1.10393e-07
8.0047e-08
6.55291e-07
7.21055e-08
7.21055e-08
6.76447e-07
3.55422e-08
6.67946e-08
6.90189e-07
3.67401e-16
6.41831e-08
6.97006e-07
-3.55422e-08
6.41831e-08
6.97006e-07
-7.21055e-08
6.67946e-08
6.90189e-07
-1.10393e-07
7.21055e-08
6.76447e-07
-1.50379e-07
8.0047e-08
6.55291e-07
9.03547e-08
6.25094e-07
-1.89938e-07
1.41443e-07
4.48218e-08
6.45196e-07
-1.81395e-07
1.02858e-07
3.95943e-08
6.71535e-07
6.67946e-08
3.55422e-08
6.90189e-07
3.28232e-08
3.28232e-08
7.02446e-07
-3.22564e-16
3.14829e-08
7.08565e-07
-3.28232e-08
3.14829e-08
7.08565e-07
-6.67946e-08
3.28232e-08
7.02446e-07
-1.02858e-07
3.55422e-08
6.90189e-07
-1.41443e-07
3.95943e-08
6.71535e-07
4.48218e-08
6.45196e-07
-1.81395e-07
1.37136e-07
2.77016e-16
6.55062e-07
-1.77448e-07
9.91688e-08
-3.21878e-16
6.79534e-07
6.41831e-08
-1.57155e-16
6.97006e-07
3.14829e-08
5.94653e-17
7.08565e-07
-1.12853e-16
-1.93913e-16
7.14358e-07
-3.14829e-08
2.61677e-16
7.14358e-07
-6.41831e-08
6.50046e-16
7.08565e-07
-9.91688e-08
1.92103e-16
6.97006e-07
-1.37136e-07
-3.35504e-16
6.79534e-07
2.52651e-16
6.55062e-07
-1.77448e-07
1.37136e-07
-4.48218e-08
6.55062e-07
-1.77448e-07
9.91688e-08
-3.95943e-08
6.79534e-07
6.41831e-08
-3.55422e-08
6.97006e-07
3.14829e-08
-3.28232e-08
7.08565e-07
4.33992e-16
-3.14829e-08
7.14358e-07
-3.14829e-08
-3.14829e-08
7.14358e-07
-6.41831e-08
-3.28232e-08
7.08565e-07
-9.91688e-08
-3.55422e-08
6.97006e-07
-1.37136e-07
-3.95943e-08
6.79534e-07
-4.48218e-08
6.55062e-07
-1.77448e-07
1.41443e-07
-9.03547e-08
6.45196e-07
-1.81395e-07
1.02858e-07
-8.0047e-08
6.71535e-07
6.67946e-08
-7.21055e-08
6.90189e-07
3.28232e-08
-6.67946e-08
7.02446e-07
1.56309e-16
-6.41831e-08
7.08565e-07
-3.28232e-08
-6.41831e-08
7.08565e-07
-6.67946e-08
-6.67946e-08
7.02446e-07
-1.02858e-07
-7.21055e-08
6.90189e-07
-1.41443e-07
-8.0047e-08
6.71535e-07
-9.03547e-08
6.45196e-07
-1.81395e-07
1.50379e-07
-1.36459e-07
6.25094e-07
-1.89938e-07
1.10393e-07
-1.21662e-07
6.55291e-07
7.21055e-08
-1.10393e-07
6.76447e-07
3.55422e-08
-1.02858e-07
6.90189e-07
-3.11011e-16
-9.91688e-08
6.97006e-07
-3.55422e-08
-9.91688e-08
6.97006e-07
-7.21055e-08
-1.02858e-07
6.90189e-07
-1.10393e-07
-1.10393e-07
6.76447e-07
-1.50379e-07
-1.21662e-07
6.55291e-07
-1.36459e-07
6.25094e-07
-1.89938e-07
1.63746e-07
-1.84449e-07
5.93739e-07
-2.00111e-07
1.21662e-07
-1.63746e-07
6.30013e-07
8.0047e-08
-1.50379e-07
6.55291e-07
3.95943e-08
-1.41443e-07
6.71535e-07
-3.65935e-16
-1.37136e-07
6.79534e-07
-3.95943e-08
-1.37136e-07
6.79534e-07
-8.0047e-08
-1.41443e-07
6.71535e-07
-1.21662e-07
-1.50379e-07
6.55291e-07
-1.63746e-07
-1.63746e-07
6.30013e-07
-1.84449e-07
5.93739e-07
-2.00111e-07
1.84449e-07
5.49592e-07
-2.24236e-07
-2.24236e-07
1.36459e-07
5.93739e-07
-2.00111e-07
9.03547e-08
6.25094e-07
-1.89938e-07
4.48218e-08
6.45196e-07
-1.81395e-07
7.20621e-16
6.55062e-07
-1.77448e-07
-4.48218e-08
6.55062e-07
-1.77448e-07
-9.03547e-08
6.45196e-07
-1.81395e-07
-1.36459e-07
6.25094e-07
-1.89938e-07
-1.84449e-07
5.93739e-07
-2.00111e-07
5.49592e-07
-2.24236e-07
-2.24236e-07
1.058e-07
1.058e-07
5.82619e-07
-1.22314e-07
-1.22314e-07
8.2877e-08
1.03447e-07
6.34692e-07
-1.21476e-07
5.66461e-08
1.00967e-07
6.70611e-07
-1.20253e-07
2.8643e-08
9.88061e-08
6.93061e-07
-1.18668e-07
-9.87975e-17
9.777e-08
7.03915e-07
-1.1798e-07
-2.8643e-08
9.777e-08
7.03915e-07
-1.1798e-07
-5.66461e-08
9.88061e-08
6.93061e-07
-1.18668e-07
-8.2877e-08
1.00967e-07
6.70611e-07
-1.20253e-07
-1.058e-07
1.03447e-07
6.34692e-07
-1.21476e-07
1.058e-07
5.82619e-07
-1.22314e-07
-1.22314e-07
1.03447e-07
8.2877e-08
6.34692e-07
-1.21476e-07
8.01558e-08
8.01558e-08
6.76594e-07
5.44347e-08
7.7592e-08
7.04388e-07
2.74518e-08
7.56233e-08
7.21701e-07
8.95047e-16
7.46521e-08
7.30104e-07
-2.74518e-08
7.46521e-08
7.30104e-07
-5.44347e-08
7.56233e-08
7.21701e-07
-8.01558e-08
7.7592e-08
7.04388e-07
-1.03447e-07
8.01558e-08
6.76594e-07
8.2877e-08
6.34692e-07
-1.21476e-07
1.00967e-07
5.66461e-08
6.70611e-07
-1.20253e-07
7.7592e-08
5.44347e-08
7.04388e-07
5.24645e-08
5.24645e-08
7.26702e-07
2.64249e-08
5.10383e-08
7.40814e-07
6.10505e-16
5.0331e-08
7.47752e-07
-2.64249e-08
5.0331e-08
7.47752e-07
-5.24645e-08
5.10383e-08
7.40814e-07
-7.7592e-08
5.24645e-08
7.26702e-07
-1.00967e-07
5.44347e-08
7.04388e-07
5.66461e-08
6.70611e-07
-1.20253e-07
9.88061e-08
2.8643e-08
6.93061e-07
-1.18668e-07
7.56233e-08
2.74518e-08
7.21701e-07
5.10383e-08
2.64249e-08
7.40814e-07
2.56961e-08
2.56961e-08
7.5313e-07
3.74604e-16
2.53333e-08
7.59259e-07
-2.56961e-08
2.53333e-08
7.59259e-07
-5.10383e-08
2.56961e-08
7.5313e-07
-7.56233e-08
2.64249e-08
7.40814e-07
-9.88061e-08
2.74518e-08
7.21701e-07
2.8643e-08
6.93061e-07
-1.18668e-07
9.777e-08
-7.94075e-16
7.03915e-07
-1.1798e-07
7.46521e-08
5.26379e-16
7.30104e-07
5.0331e-08
7.28036e-16
7.47752e-07
2.53333e-08
3.42306e-16
7.59259e-07
6.03796e-16
5.5427e-16
7.65025e-07
-2.53333e-08
1.03533e-15
7.65025e-07
-5.0331e-08
1.2248e-15
7.59259e-07
-7.46521e-08
7.85302e-16
7.47752e-07
-9.777e-08
-4.84564e-16
7.30104e-07
-8.91457e-16
7.03915e-07
-1.1798e-07
9.777e-08
-2.8643e-08
7.03915e-07
-1.1798e-07
7.46521e-08
-2.74518e-08
7.30104e-07
5.0331e-08
-2.64249e-08
7.47752e-07
2.53333e-08
-2.56961e-08
7.59259e-07
1.12021e-15
-2.53333e-08
7.65025e-07
-2.53333e-08
-2.53333e-08
7.65025e-07
-5.0331e-08
-2.56961e-08
7.59259e-07
-7.46521e-08
-2.64249e-08
7.47752e-07
-9.777e-08
-2.74518e-08
7.30104e-07
-2.8643e-08
7.03915e-07
-1.1798e-07
9.88061e-08
-5.66461e-08
6.93061e-07
-1.18668e-07
7.56233e-08
-5.44347e-08
7.21701e-07
5.10383e-08
-5.24645e-08
7.40814e-07
2.56961e-08
-5.10383e-08
7.5313e-07
1.24137e-15
-5.0331e-08
7.59259e-07
-2.56961e-08
-5.0331e-08
7.59259e-07
-5.10383e-08
-5.10383e-08
7.5313e-07
-7.56233e-08
-5.24645e-08
7.40814e-07
-9.88061e-08
-5.44347e-08
7.21701e-07
-5.66461e-08
6.93061e-07
-1.18668e-07
1.00967e-07
-8.2877e-08
6.70611e-07
-1.20253e-07
7.7592e-08
-8.01558e-08
7.04388e-07
5.24645e-08
-7.7592e-08
7.26702e-07
2.64249e-08
-7.56233e-08
7.40814e-07
4.18654e-16
-7.46521e-08
7.47752e-07
-2.64249e-08
-7.46521e-08
7.47752e-07
-5.24645e-08
-7.56233e-08
7.40814e-07
-7.7592e-08
-7.7592e-08
7.26702e-07
-1.00967e-07
-8.01558e-08
7.04388e-07
-8.2877e-08
6.70611e-07
-1.20253e-07
1.03447e-07
-1.058e-07
6.34692e-07
-1.21476e-07
8.01558e-08
-1.03447e-07
6.76594e-07
5.44347e-08
-1.00967e-07
7.04388e-07
2.74518e-08
-9.88061e-08
7.21701e-07
-1.41099e-15
-9.777e-08
7.30104e-07
-2.74518e-08
-9.777e-08
7.30104e-07
-5.44347e-08
-9.88061e-08
7.21701e-07
-8.01558e-08
-1.00967e-07
7.04388e-07
-1.03447e-07
-1.03447e-07
6.76594e-07
-1.058e-07
6.34692e-07
-1.21476e-07
1.058e-07
5.82619e-07
-1.22314e-07
-1.22314e-07
8.2877e-08
6.34692e-07
-1.21476e-07
5.66461e-08
6.70611e-07
-1.20253e-07
2.8643e-08
6.93061e-07
-1.18668e-07
-1.4087e-15
7.03915e-07
-1.1798e-07
-2.8643e-08
7.03915e-07
-1.1798e-07
-5.66461e-08
6.93061e-07
-1.18668e-07
-8.2877e-08
6.70611e-07
-1.20253e-07
-1.058e-07
6.34692e-07
-1.21476e-07
5.82619e-07
-1.22314e-07
-1.22314e-07
6.70163e-08
6.70163e-08
5.90597e-07
-7.10052e-08
-7.10052e-08
5.61004e-08
7.05275e-08
6.50324e-07
-7.52432e-08
4.00528e-08
7.22431e-08
6.91795e-07
-7.73791e-08
2.07901e-08
7.2884e-08
7.17839e-07
-7.83998e-08
-7.3386e-16
7.31482e-08
7.30452e-07
-7.88948e-08
-2.07901e-08
7.31482e-08
7.30452e-07
-7.88948e-08
-4.00528e-08
7.2884e-08
7.17839e-07
-7.83998e-08
-5.61004e-08
7.22431e-08
6.91795e-07
-7.7379e-08
-6.70163e-08
7.05274e-08
6.50324e-07
-7.52432e-08
6.70163e-08
5.90597e-07
-7.10052e-08
-7.10052e-08
7.05275e-08
5.61004e-08
6.50324e-07
-7.52432e-08
5.86862e-08
5.86862e-08
7.00277e-07
4.18216e-08
5.98974e-08
7.33598e-07
2.16936e-08
6.02908e-08
7.54422e-07
2.39603e-15
6.04118e-08
7.64534e-07
-2.16936e-08
6.04118e-08
7.64534e-07
-4.18216e-08
6.02908e-08
7.54422e-07
-5.86862e-08
5.98974e-08
7.33598e-07
-7.05274e-08
5.86862e-08
7.00277e-07
5.61004e-08
6.50324e-07
-7.52432e-08
7.22431e-08
4.00528e-08
6.91795e-07
-7.73791e-08
5.98974e-08
4.18216e-08
7.33598e-07
4.25992e-08
4.25992e-08
7.61299e-07
2.20827e-08
4.28219e-08
7.78799e-07
1.84037e-15
4.2866e-08
7.8738e-07
-2.20827e-08
4.2866e-08
7.8738e-07
-4.25992e-08
4.28219e-08
7.78799e-07
-5.98974e-08
4.25992e-08
7.61299e-07
-7.22431e-08
4.18216e-08
7.33598e-07
4.00528e-08
6.91795e-07
-7.73791e-08
7.2884e-08
2.07901e-08
7.17839e-07
-7.83998e-08
6.02908e-08
2.16936e-08
7.54422e-07
4.28219e-08
2.20827e-08
7.78799e-07
2.21866e-08
2.21866e-08
7.94401e-07
1.14896e-15
2.21994e-08
8.02112e-07
-2.21866e-08
2.21994e-08
8.02112e-07
-4.28219e-08
2.21866e-08
7.94401e-07
-6.02908e-08
2.20827e-08
7.78799e-07
-7.2884e-08
2.16936e-08
7.54422e-07
2.07901e-08
7.17839e-07
-7.83998e-08
7.31482e-08
-1.08075e-16
7.30452e-07
-7.88948e-08
6.04118e-08
2.49174e-15
7.64534e-07
4.2866e-08
2.20884e-15
7.8738e-07
2.21994e-08
1.72742e-15
8.02112e-07
9.01427e-16
1.33196e-15
8.09424e-07
-2.21994e-08
1.45797e-15
8.09424e-07
-4.2866e-08
9.96124e-16
8.02112e-07
-6.04118e-08
-6.70758e-17
7.8738e-07
-7.31482e-08
-2.42407e-15
7.64534e-07
-3.11265e-15
7.30452e-07
-7.88948e-08
7.31482e-08
-2.07901e-08
7.30452e-07
-7.88948e-08
6.04118e-08
-2.16936e-08
7.64534e-07
4.2866e-08
-2.20827e-08
7.8738e-07
2.21994e-08
-2.21866e-08
8.02112e-07
9.58409e-16
-2.21994e-08
8.09424e-07
-2.21994e-08
-2.21994e-08
8.09424e-07
-4.2866e-08
-2.21866e-08
8.02112e-07
-6.04118e-08
-2.20827e-08
7.8738e-07
-7.31482e-08
-2.16936e-08
7.64534e-07
-2.07901e-08
7.30452e-07
-7.88948e-08
7.2884e-08
-4.00528e-08
7.17839e-07
-7.83998e-08
6.02908e-08
-4.18216e-08
7.54422e-07
4.28219e-08
-4.25992e-08
7.78799e-07
2.21866e-08
-4.28219e-08
7.94401e-07
5.48838e-16
-4.2866e-08
8.02112e-07
-2.21866e-08
-4.2866e-08
8.02112e-07
-4.28219e-08
-4.28219e-08
7.94401e-07
-6.02908e-08
-4.25992e-08
7.78799e-07
-7.2884e-08
-4.18216e-08
7.54422e-07
-4.00528e-08
7.17839e-07
-7.83998e-08
7.22431e-08
-5.61004e-08
6.91795e-07
-7.7379e-08
5.98974e-08
-5.86862e-08
7.33598e-07
4.25992e-08
-5.98974e-08
7.61299e-07
2.20827e-08
-6.02908e-08
7.78799e-07
-1.80986e-16
-6.04118e-08
7.8738e-07
-2.20827e-08
-6.04118e-08
7.8738e-07
-4.25992e-08
-6.02908e-08
7.78799e-07
-5.98974e-08
-5.98974e-08
7.61299e-07
-7.22431e-08
-5.86862e-08
7.33598e-07
-5.61004e-08
6.91795e-07
-7.7379e-08
7.05274e-08
-6.70163e-08
6.50324e-07
-7.52432e-08
5.86862e-08
-7.05274e-08
7.00277e-07
4.18216e-08
-7.22431e-08
7.33598e-07
2.16936e-08
-7.2884e-08
7.54422e-07
-2.31311e-15
-7.31482e-08
7.64534e-07
-2.16936e-08
-7.31482e-08
7.64534e-07
-4.18216e-08
-7.2884e-08
7.54422e-07
-5.86862e-08
-7.22431e-08
7.33598e-07
-7.05274e-08
-7.05274e-08
7.00277e-07
-6.70163e-08
6.50324e-07
-7.52432e-08
6.70163e-08
5.90597e-07
-7.10052e-08
-7.10052e-08
5.61004e-08
6.50324e-07
-7.52432e-08
4.00528e-08
6.91795e-07
-7.73791e-08
2.07901e-08
7.17839e-07
-7.83998e-08
-1.94743e-15
7.30452e-07
-7.88948e-08
-2.07901e-08
7.30452e-07
-7.88948e-08
-4.00528e-08
7.17839e-07
-7.83998e-08
-5.61004e-08
6.91795e-07
-7.7379e-08
-6.70163e-08
6.50324e-07
-7.52432e-08
5.90597e-07
-7.10052e-08
-7.10052e-08
2.51306e-08
2.51306e-08
5.8952e-07
-2.45921e-08
-2.45921e-08
2.264e-08
2.93116e-08
6.52162e-07
-2.8659e-08
1.69411e-08
3.20764e-08
6.96411e-07
-3.09933e-08
9.04752e-09
3.37214e-08
7.2456e-07
-3.25485e-08
-4.94752e-16
3.45118e-08
7.38289e-07
-3.33012e-08
-9.04752e-09
3.45118e-08
7.38289e-07
-3.33012e-08
-1.69411e-08
3.37214e-08
7.2456e-07
-3.25485e-08
-2.264e-08
3.20764e-08
6.96411e-07
-3.09933e-08
-2.51306e-08
2.93116e-08
6.52162e-07
-2.8659e-08
2.51306e-08
5.8952e-07
-2.45921e-08
-2.45921e-08
2.93116e-08
2.264e-08
6.52162e-07
-2.8659e-08
2.62001e-08
2.62001e-08
7.065e-07
1.95976e-08
2.86459e-08
7.43631e-07
1.04542e-08
3.00805e-08
7.67206e-07
1.18217e-15
3.07519e-08
7.78748e-07
-1.04542e-08
3.07519e-08
7.78748e-07
-1.95976e-08
3.00805e-08
7.67206e-07
-2.62001e-08
2.86459e-08
7.43631e-07
-2.93116e-08
2.62001e-08
7.065e-07
2.264e-08
6.52162e-07
-2.8659e-08
3.20764e-08
1.69411e-08
6.96411e-07
-3.09933e-08
2.86459e-08
1.95976e-08
7.43631e-07
2.139e-08
2.139e-08
7.7581e-07
1.13977e-08
2.24275e-08
7.96444e-07
1.10116e-15
2.29031e-08
8.06627e-07
-1.13977e-08
2.29031e-08
8.06627e-07
-2.139e-08
2.24275e-08
7.96444e-07
-2.86459e-08
2.139e-08
7.7581e-07
-3.20764e-08
1.95976e-08
7.43631e-07
1.69411e-08
6.96411e-07
-3.09933e-08
3.37214e-08
9.04752e-09
7.2456e-07
-3.25485e-08
3.00804e-08
1.04542e-08
7.67206e-07
2.24275e-08
1.13977e-08
7.96444e-07
1.19397e-08
1.19397e-08
8.15376e-07
7.63938e-16
1.21849e-08
8.2477e-07
-1.19397e-08
1.21849e-08
8.2477e-07
-2.24275e-08
1.19397e-08
8.15376e-07
-3.00804e-08
1.13977e-08
7.96444e-07
-3.37214e-08
1.04542e-08
7.67206e-07
9.04752e-09
7.2456e-07
-3.25485e-08
3.45118e-08
1.17383e-15
7.38289e-07
-3.33012e-08
3.07519e-08
1.16679e-15
7.78748e-07
2.29031e-08
9.43759e-16
8.06627e-07
1.21849e-08
1.04363e-15
8.2477e-07
9.27363e-16
1.00921e-15
8.33794e-07
-1.21849e-08
1.48893e-15
8.33794e-07
-2.29031e-08
1.32512e-15
8.2477e-07
-3.07519e-08
6.26477e-16
8.06627e-07
-3.45118e-08
-2.20402e-15
7.78748e-07
-2.95544e-15
7.38289e-07
-3.33012e-08
3.45118e-08
-9.04752e-09
7.38289e-07
-3.33012e-08
3.07519e-08
-1.04542e-08
7.78748e-07
2.29031e-08
-1.13977e-08
8.06627e-07
1.21849e-08
-1.19397e-08
8.2477e-07
1.32591e-15
-1.21849e-08
8.33794e-07
-1.21849e-08
-1.21849e-08
8.33794e-07
-2.29031e-08
-1.19397e-08
8.2477e-07
-3.07519e-08
-1.13977e-08
8.06627e-07
-3.45118e-08
-1.04542e-08
7.78748e-07
-9.04753e-09
7.38289e-07
-3.33011e-08
3.37214e-08
-1.69411e-08
7.2456e-07
-3.25485e-08
3.00805e-08
-1.95976e-08
7.67206e-07
2.24275e-08
-2.139e-08
7.96444e-07
1.19397e-08
-2.24275e-08
8.15376e-07
1.06907e-15
-2.29031e-08
8.2477e-07
-1.19397e-08
-2.29031e-08
8.2477e-07
-2.24275e-08
-2.24275e-08
8.15376e-07
-3.00805e-08
-2.139e-08
7.96444e-07
-3.37214e-08
-1.95976e-08
7.67206e-07
-1.69411e-08
7.2456e-07
-3.25485e-08
3.20764e-08
-2.264e-08
6.96411e-07
-3.09933e-08
2.86459e-08
-2.62001e-08
7.43631e-07
2.139e-08
-2.86459e-08
7.7581e-07
1.13977e-08
-3.00804e-08
7.96444e-07
7.0956e-16
-3.07519e-08
8.06627e-07
-1.13977e-08
-3.07519e-08
8.06627e-07
-2.139e-08
-3.00804e-08
7.96444e-07
-2.86459e-08
-2.86459e-08
7.7581e-07
-3.20764e-08
-2.62001e-08
7.43631e-07
-2.264e-08
6.96411e-07
-3.09933e-08
2.93116e-08
-2.51306e-08
6.52162e-07
-2.8659e-08
2.62001e-08
-2.93116e-08
7.065e-07
1.95976e-08
-3.20764e-08
7.43631e-07
1.04542e-08
-3.37214e-08
7.67206e-07
-1.47381e-15
-3.45118e-08
7.78748e-07
-1.04542e-08
-3.45118e-08
7.78748e-07
-1.95976e-08
-3.37214e-08
7.67206e-07
-2.62001e-08
-3.20764e-08
7.43631e-07
-2.93116e-08
-2.93116e-08
7.065e-07
-2.51306e-08
6.52162e-07
-2.8659e-08
2.51306e-08
5.8952e-07
-2.45921e-08
-2.45921e-08
2.264e-08
6.52162e-07
-2.8659e-08
1.69411e-08
6.96411e-07
-3.09933e-08
9.04752e-09
7.2456e-07
-3.25485e-08
-2.18568e-15
7.38289e-07
-3.33012e-08
-9.04753e-09
7.38289e-07
-3.33011e-08
-1.69411e-08
7.2456e-07
-3.25485e-08
-2.264e-08
6.96411e-07
-3.09933e-08
-2.51306e-08
6.52162e-07
-2.8659e-08
5.8952e-07
-2.45921e-08
-2.45921e-08
9.48521e-09
9.48521e-09
5.88008e-07
-8.72924e-09
-8.72924e-09
8.87298e-09
1.15502e-08
6.51743e-07
-1.05196e-08
6.81131e-09
1.30077e-08
6.97141e-07
-1.16764e-08
3.69341e-09
1.39418e-08
7.26217e-07
-1.24809e-08
2.09608e-16
1.43981e-08
7.40453e-07
-1.28687e-08
-3.69341e-09
1.43981e-08
7.40453e-07
-1.28687e-08
-6.81131e-09
1.39418e-08
7.26217e-07
-1.24809e-08
-8.87299e-09
1.30077e-08
6.97141e-07
-1.16764e-08
-9.48521e-09
1.15502e-08
6.51743e-07
-1.05196e-08
9.48521e-09
5.88008e-07
-8.72924e-09
-8.72924e-09
1.15502e-08
8.87298e-09
6.51743e-07
-1.05196e-08
1.07948e-08
1.07948e-08
7.0801e-07
8.29866e-09
1.21823e-08
7.46952e-07
4.49588e-09
1.30477e-08
7.71903e-07
2.01168e-15
1.34654e-08
7.84177e-07
-4.49588e-09
1.34654e-08
7.84177e-07
-8.29866e-09
1.30477e-08
7.71903e-07
-1.07948e-08
1.21823e-08
7.46952e-07
-1.15502e-08
1.07948e-08
7.0801e-07
8.87298e-09
6.51743e-07
-1.05196e-08
1.30077e-08
6.81131e-09
6.97141e-07
-1.16764e-08
1.21823e-08
8.29866e-09
7.46952e-07
9.36555e-09
9.36555e-09
7.81444e-07
5.07059e-09
1.00212e-08
8.03766e-07
1.75876e-15
1.03337e-08
8.14829e-07
-5.07058e-09
1.03337e-08
8.14829e-07
-9.36555e-09
1.00212e-08
8.03766e-07
-1.21823e-08
9.36555e-09
7.81444e-07
-1.30077e-08
8.29866e-09
7.46952e-07
6.81131e-09
6.97141e-07
-1.16764e-08
1.39418e-08
3.69341e-09
7.26217e-07
-1.24809e-08
1.30477e-08
4.49588e-09
7.71903e-07
1.00212e-08
5.07059e-09
8.03766e-07
5.42269e-09
5.42269e-09
8.24573e-07
1.15138e-15
5.58963e-09
8.34937e-07
-5.42269e-09
5.58963e-09
8.34937e-07
-1.00212e-08
5.42269e-09
8.24573e-07
-1.30477e-08
5.07058e-09
8.03766e-07
-1.39418e-08
4.49588e-09
7.71903e-07
3.69341e-09
7.26217e-07
-1.24809e-08
1.43981e-08
5.31805e-16
7.40453e-07
-1.28687e-08
1.34654e-08
1.81024e-15
7.84177e-07
1.03337e-08
1.79926e-15
8.14829e-07
5.58963e-09
1.48152e-15
8.34937e-07
7.94395e-16
1.18274e-15
8.44973e-07
-5.58962e-09
1.13137e-15
8.44973e-07
-1.03337e-08
7.6618e-16
8.34937e-07
-1.34654e-08
7.94955e-17
8.14829e-07
-1.43981e-08
-9.47844e-16
7.84177e-07
-4.02673e-16
7.40453e-07
-1.28687e-08
1.43981e-08
-3.69341e-09
7.40453e-07
-1.28687e-08
1.34654e-08
-4.49588e-09
7.84177e-07
1.03337e-08
-5.07058e-09
8.14829e-07
5.58963e-09
-5.42269e-09
8.34937e-07
6.65645e-16
-5.58962e-09
8.44973e-07
-5.58962e-09
-5.58962e-09
8.44973e-07
-1.03337e-08
-5.42269e-09
8.34937e-07
-1.34654e-08
-5.07058e-09
8.14829e-07
-1.43981e-08
-4.49588e-09
7.84177e-07
-3.69341e-09
7.40453e-07
-1.28687e-08
1.39418e-08
-6.81131e-09
7.26217e-07
-1.24809e-08
1.30477e-08
-8.29866e-09
7.71903e-07
1.00212e-08
-9.36555e-09
8.03766e-07
5.42269e-09
-1.00212e-08
8.24573e-07
4.43136e-16
-1.03337e-08
8.34937e-07
-5.42269e-09
-1.03337e-08
8.34937e-07
-1.00212e-08
-1.00212e-08
8.24573e-07
-1.30477e-08
-9.36555e-09
8.03766e-07
-1.39418e-08
-8.29866e-09
7.71903e-07
-6.81131e-09
7.26217e-07
-1.24809e-08
1.30077e-08
-8.87298e-09
6.97141e-07
-1.16764e-08
1.21823e-08
-1.07948e-08
7.46952e-07
9.36555e-09
-1.21823e-08
7.81444e-07
5.07058e-09
-1.30477e-08
8.03766e-07
2.26646e-17
-1.34654e-08
8.14829e-07
-5.07058e-09
-1.34654e-08
8.14829e-07
-9.36555e-09
-1.30477e-08
8.03766e-07
-1.21823e-08
-1.21823e-08
7.81444e-07
-1.30077e-08
-1.07948e-08
7.46952e-07
-8.87298e-09
6.97141e-07
-1.16764e-08
1.15502e-08
-9.48521e-09
6.51743e-07
-1.05196e-08
1.07948e-08
-1.15502e-08
7.0801e-07
8.29865e-09
-1.30077e-08
7.46952e-07
4.49588e-09
-1.39418e-08
7.71903e-07
-1.563e-15
-1.43981e-08
7.84177e-07
-4.49588e-09
-1.43981e-08
7.84177e-07
-8.29866e-09
-1.39418e-08
7.71903e-07
-1.07948e-08
-1.30077e-08
7.46952e-07
-1.15502e-08
-1.15502e-08
7.0801e-07
-9.48521e-09
6.51743e-07
-1.05196e-08
9.48521e-09
5.88008e-07
-8.72924e-09
-8.72924e-09
8.87298e-09
6.51743e-07
-1.05196e-08
6.8113e-09
6.97141e-07
-1.16764e-08
3.69341e-09
7.26217e-07
-1.24809e-08
-1.10822e-15
7.40453e-07
-1.28687e-08
-3.69341e-09
7.40453e-07
-1.28687e-08
-6.81131e-09
7.26217e-07
-1.24809e-08
-8.87299e-09
6.97141e-07
-1.16764e-08
-9.48521e-09
6.51743e-07
-1.05196e-08
5.88008e-07
-8.72924e-09
-8.72924e-09
3.10252e-09
3.10252e-09
5.8699e-07
-2.59353e-09
-2.59353e-09
3.0928e-09
4.08229e-09
6.51052e-07
-3.38144e-09
2.46961e-09
4.80564e-09
6.96881e-07
-3.92219e-09
1.36999e-09
5.2897e-09
7.26341e-07
-4.3143e-09
1.18523e-17
5.52857e-09
7.40797e-07
-4.50275e-09
-1.36999e-09
5.52857e-09
7.40797e-07
-4.50275e-09
-2.46961e-09
5.2897e-09
7.26341e-07
-4.3143e-09
-3.09281e-09
4.80564e-09
6.96881e-07
-3.92219e-09
-3.10252e-09
4.08229e-09
6.51052e-07
-3.38144e-09
3.10252e-09
5.8699e-07
-2.59353e-09
-2.59353e-09
4.08229e-09
3.0928e-09
6.51052e-07
-3.38144e-09
4.04814e-09
4.04814e-09
7.08079e-07
3.22449e-09
4.76461e-09
7.47817e-07
1.78134e-09
5.22871e-09
7.73407e-07
1.44167e-16
5.45625e-09
7.8603e-07
-1.78134e-09
5.45625e-09
7.8603e-07
-3.22449e-09
5.22871e-09
7.73407e-07
-4.04814e-09
4.76461e-09
7.47817e-07
-4.08229e-09
4.04814e-09
7.08079e-07
3.0928e-09
6.51052e-07
-3.38144e-09
4.80564e-09
2.46961e-09
6.96881e-07
-3.92219e-09
4.76461e-09
3.22449e-09
7.47817e-07
3.78851e-09
3.78851e-09
7.83396e-07
2.08849e-09
4.14757e-09
8.06547e-07
1.08961e-16
4.32164e-09
8.18052e-07
-2.08849e-09
4.32164e-09
8.18052e-07
-3.78851e-09
4.14757e-09
8.06547e-07
-4.76461e-09
3.78851e-09
7.83396e-07
-4.80564e-09
3.22449e-09
7.47817e-07
2.46961e-09
6.96881e-07
-3.92219e-09
5.2897e-09
1.36999e-09
7.26341e-07
-4.3143e-09
5.22871e-09
1.78134e-09
7.73407e-07
4.14757e-09
2.08849e-09
8.06547e-07
2.28311e-09
2.28311e-09
8.28302e-07
5.30596e-16
2.37696e-09
8.39165e-07
-2.28311e-09
2.37696e-09
8.39165e-07
-4.14757e-09
2.28311e-09
8.28302e-07
-5.22871e-09
2.08849e-09
8.06547e-07
-5.2897e-09
1.78134e-09
7.73407e-07
1.36999e-09
7.26341e-07
-4.3143e-09
5.52857e-09
5.70904e-16
7.40797e-07
-4.50275e-09
5.45625e-09
4.36882e-16
7.8603e-07
4.32164e-09
4.43738e-17
8.18052e-07
2.37696e-09
3.26512e-16
8.39165e-07
7.96758e-16
7.10977e-16
8.49727e-07
-2.37696e-09
9.84377e-16
8.49727e-07
-4.32164e-09
1.1006e-15
8.39165e-07
-5.45625e-09
5.55283e-16
8.18052e-07
-5.52857e-09
-5.66117e-16
7.8603e-07
-3.3562e-16
7.40797e-07
-4.50275e-09
5.52857e-09
-1.36999e-09
7.40797e-07
-4.50275e-09
5.45625e-09
-1.78134e-09
7.8603e-07
4.32164e-09
-2.08849e-09
8.18052e-07
2.37696e-09
-2.28311e-09
8.39165e-07
1.19553e-15
-2.37696e-09
8.49727e-07
-2.37696e-09
-2.37696e-09
8.49727e-07
-4.32164e-09
-2.28311e-09
8.39165e-07
-5.45625e-09
-2.08849e-09
8.18052e-07
-5.52857e-09
-1.78134e-09
7.8603e-07
-1.36999e-09
7.40797e-07
-4.50275e-09
5.2897e-09
-2.46961e-09
7.26341e-07
-4.3143e-09
5.22871e-09
-3.22449e-09
7.73407e-07
4.14757e-09
-3.78851e-09
8.06547e-07
2.28311e-09
-4.14757e-09
8.28302e-07
1.03383e-15
-4.32164e-09
8.39165e-07
-2.28311e-09
-4.32164e-09
8.39165e-07
-4.14757e-09
-4.14757e-09
8.28302e-07
-5.22871e-09
-3.78851e-09
8.06547e-07
-5.2897e-09
-3.22449e-09
7.73407e-07
-2.46961e-09
7.26341e-07
-4.3143e-09
4.80564e-09
-3.0928e-09
6.96881e-07
-3.92219e-09
4.76461e-09
-4.04814e-09
7.47817e-07
3.78851e-09
-4.76462e-09
7.83396e-07
2.08849e-09
-5.22871e-09
8.06547e-07
7.82169e-17
-5.45625e-09
8.18052e-07
-2.08849e-09
-5.45625e-09
8.18052e-07
-3.78851e-09
-5.22871e-09
8.06547e-07
-4.76461e-09
-4.76461e-09
7.83396e-07
-4.80564e-09
-4.04814e-09
7.47817e-07
-3.09281e-09
6.96881e-07
-3.92219e-09
4.08229e-09
-3.10252e-09
6.51052e-07
-3.38144e-09
4.04814e-09
-4.08229e-09
7.08079e-07
3.22449e-09
-4.80564e-09
7.47817e-07
1.78134e-09
-5.2897e-09
7.73407e-07
-9.70912e-16
-5.52857e-09
7.8603e-07
-1.78134e-09
-5.52857e-09
7.8603e-07
-3.22449e-09
-5.28969e-09
7.73407e-07
-4.04814e-09
-4.80564e-09
7.47817e-07
-4.08229e-09
-4.08229e-09
7.08079e-07
-3.10252e-09
6.51052e-07
-3.38144e-09
3.10252e-09
5.8699e-07
-2.59353e-09
-2.59353e-09
3.09281e-09
6.51052e-07
-3.38144e-09
2.46961e-09
6.96881e-07
-3.92219e-09
1.36999e-09
7.26341e-07
-4.3143e-09
-5.27991e-16
7.40797e-07
-4.50275e-09
-1.36999e-09
7.40797e-07
-4.50275e-09
-2.46961e-09
7.26341e-07
-4.3143e-09
-3.0928e-09
6.96881e-07
-3.92219e-09
-3.10252e-09
6.51052e-07
-3.38144e-09
5.8699e-07
-2.59353e-09
-2.59353e-09
8.37249e-10
8.37251e-10
5.86556e-07
-6.20124e-10
-6.20124e-10
9.05038e-10
1.2277e-09
6.50669e-07
-9.12441e-10
7.5618e-10
1.53118e-09
6.96617e-07
-1.11828e-09
4.30438e-10
1.74569e-09
7.26201e-07
-1.27936e-09
5.60174e-16
1.85322e-09
7.40732e-07
-1.35728e-09
-4.30437e-10
1.85322e-09
7.40732e-07
-1.35728e-09
-7.56179e-10
1.74569e-09
7.26201e-07
-1.27936e-09
-9.05037e-10
1.53118e-09
6.96617e-07
-1.11828e-09
-8.37247e-10
1.2277e-09
6.50669e-07
-9.1244e-10
8.3725e-10
5.86556e-07
-6.20122e-10
-6.20123e-10
1.2277e-09
9.05041e-10
6.50669e-07
-9.1244e-10
1.30345e-09
1.30346e-09
7.07927e-07
1.08076e-09
1.62004e-09
7.47951e-07
6.1044e-10
1.83574e-09
7.73788e-07
8.26967e-16
1.94386e-09
7.8655e-07
-6.10439e-10
1.94386e-09
7.8655e-07
-1.08076e-09
1.83574e-09
7.73788e-07
-1.30345e-09
1.62004e-09
7.47951e-07
-1.2277e-09
1.30345e-09
7.07927e-07
9.0504e-10
6.50669e-07
-9.12439e-10
1.53118e-09
7.56183e-10
6.96617e-07
-1.11828e-09
1.62005e-09
1.08077e-09
7.47951e-07
1.33815e-09
1.33815e-09
7.8396e-07
7.53022e-10
1.51032e-09
8.07457e-07
1.1224e-15
1.596e-09
8.19153e-07
-7.5302e-10
1.596e-09
8.19153e-07
-1.33815e-09
1.51032e-09
8.07457e-07
-1.62005e-09
1.33815e-09
7.8396e-07
-1.53118e-09
1.08076e-09
7.47951e-07
7.56181e-10
6.96617e-07
-1.11828e-09
1.74569e-09
4.30439e-10
7.26201e-07
-1.27936e-09
1.83574e-09
6.10441e-10
7.73788e-07
1.51032e-09
7.53022e-10
8.07457e-07
8.47913e-10
8.47912e-10
8.29627e-07
1.03782e-15
8.94972e-10
8.40714e-07
-8.47911e-10
8.94971e-10
8.40714e-07
-1.51032e-09
8.47912e-10
8.29627e-07
-1.83574e-09
7.53021e-10
8.07457e-07
-1.74569e-09
6.10439e-10
7.73788e-07
4.30438e-10
7.26201e-07
-1.27936e-09
1.85322e-09
6.57481e-16
7.40732e-07
-1.35728e-09
1.94386e-09
1.28661e-15
7.8655e-07
1.596e-09
1.01678e-15
8.19153e-07
8.94971e-10
9.80056e-16
8.40714e-07
7.61056e-16
9.8453e-16
8.51517e-07
-8.9497e-10
8.70768e-16
8.51517e-07
-1.596e-09
7.20762e-16
8.40714e-07
-1.94386e-09
5.15558e-16
8.19153e-07
-1.85322e-09
6.48606e-17
7.8655e-07
-8.42172e-17
7.40732e-07
-1.35728e-09
1.85322e-09
-4.30438e-10
7.40732e-07
-1.35728e-09
1.94386e-09
-6.10438e-10
7.8655e-07
1.596e-09
-7.5302e-10
8.19153e-07
8.94971e-10
-8.47911e-10
8.40714e-07
7.39731e-16
-8.9497e-10
8.51517e-07
-8.94969e-10
-8.9497e-10
8.51517e-07
-1.596e-09
-8.4791e-10
8.40714e-07
-1.94386e-09
-7.5302e-10
8.19153e-07
-1.85322e-09
-6.10439e-10
7.8655e-07
-4.30439e-10
7.40732e-07
-1.35728e-09
1.74569e-09
-7.56181e-10
7.26201e-07
-1.27936e-09
1.83574e-09
-1.08076e-09
7.73788e-07
1.51032e-09
-1.33815e-09
8.07457e-07
8.47912e-10
-1.51032e-09
8.29627e-07
6.52824e-16
-1.596e-09
8.40714e-07
-8.47911e-10
-1.596e-09
8.40714e-07
-1.51032e-09
-1.51032e-09
8.29627e-07
-1.83574e-09
-1.33815e-09
8.07457e-07
-1.74569e-09
-1.08076e-09
7.73788e-07
-7.56182e-10
7.26201e-07
-1.27936e-09
1.53118e-09
-9.0504e-10
6.96617e-07
-1.11828e-09
1.62005e-09
-1.30345e-09
7.47951e-07
1.33815e-09
-1.62004e-09
7.8396e-07
7.53022e-10
-1.83574e-09
8.07457e-07
7.43975e-16
-1.94386e-09
8.19153e-07
-7.5302e-10
-1.94386e-09
8.19153e-07
-1.33815e-09
-1.83574e-09
8.07457e-07
-1.62004e-09
-1.62004e-09
7.8396e-07
-1.53117e-09
-1.30345e-09
7.47951e-07
-9.0504e-10
6.96617e-07
-1.11827e-09
1.2277e-09
-8.3725e-10
6.50669e-07
-9.1244e-10
1.30345e-09
-1.2277e-09
7.07927e-07
1.08076e-09
-1.53118e-09
7.47951e-07
6.1044e-10
-1.74569e-09
7.73788e-07
6.30666e-16
-1.85322e-09
7.8655e-07
-6.10438e-10
-1.85322e-09
7.8655e-07
-1.08076e-09
-1.74569e-09
7.73788e-07
-1.30345e-09
-1.53117e-09
7.47951e-07
-1.2277e-09
-1.2277e-09
7.07927e-07
-8.3725e-10
6.50669e-07
-9.12439e-10
8.37248e-10
5.86556e-07
-6.20123e-10
-6.20123e-10
9.05038e-10
6.50669e-07
-9.12439e-10
7.5618e-10
6.96617e-07
-1.11828e-09
4.30438e-10
7.26201e-07
-1.27936e-09
2.9069e-16
7.40732e-07
-1.35728e-09
-4.30437e-10
7.40732e-07
-1.35728e-09
-7.5618e-10
7.26201e-07
-1.27936e-09
-9.05038e-10
6.96617e-07
-1.11828e-09
-8.37249e-10
6.50669e-07
-9.1244e-10
5.86556e-07
-6.20124e-10
-6.20124e-10
2.05219e-10
2.05218e-10
5.864e-07
-1.27507e-10
-1.27507e-10
2.43064e-10
3.38387e-10
6.50515e-07
-2.21918e-10
2.12617e-10
4.4573e-10
6.96491e-07
-2.89515e-10
1.24147e-10
5.25207e-10
7.2611e-07
-3.45708e-10
3.82095e-16
5.65359e-10
7.40663e-07
-3.72473e-10
-1.24146e-10
5.65359e-10
7.40663e-07
-3.72473e-10
-2.12616e-10
5.25207e-10
7.2611e-07
-3.45707e-10
-2.43062e-10
4.4573e-10
6.96491e-07
-2.89515e-10
-2.05218e-10
3.38388e-10
6.50515e-07
-2.21918e-10
2.05218e-10
5.864e-07
-1.27507e-10
-1.27507e-10
3.38388e-10
2.43063e-10
6.50515e-07
-2.21919e-10
3.8436e-10
3.84359e-10
7.07835e-07
3.30678e-10
5.01694e-10
7.47949e-07
1.90554e-10
5.85162e-10
7.73868e-07
2.64815e-16
6.27712e-10
7.86678e-07
-1.90553e-10
6.27712e-10
7.86678e-07
-3.30677e-10
5.85162e-10
7.73868e-07
-3.84359e-10
5.01695e-10
7.47949e-07
-3.38387e-10
3.8436e-10
7.07835e-07
2.43062e-10
6.50515e-07
-2.21918e-10
4.4573e-10
2.12616e-10
6.96491e-07
-2.89515e-10
5.01694e-10
3.30678e-10
7.47949e-07
4.29026e-10
4.29026e-10
7.84105e-07
2.45946e-10
4.97727e-10
8.07728e-07
-3.28312e-17
5.32652e-10
8.19494e-07
-2.45946e-10
5.32652e-10
8.19494e-07
-4.29026e-10
4.97727e-10
8.07728e-07
-5.01694e-10
4.29027e-10
7.84105e-07
-4.4573e-10
3.30678e-10
7.47949e-07
2.12616e-10
6.96491e-07
-2.89515e-10
5.25206e-10
1.24147e-10
7.2611e-07
-3.45707e-10
5.85161e-10
1.90553e-10
7.73868e-07
4.97726e-10
2.45946e-10
8.07728e-07
2.84475e-10
2.84475e-10
8.30054e-07
-6.32521e-17
3.04039e-10
8.41227e-07
-2.84475e-10
3.04039e-10
8.41227e-07
-4.97727e-10
2.84475e-10
8.30054e-07
-5.85162e-10
2.45947e-10
8.07728e-07
-5.25206e-10
1.90554e-10
7.73868e-07
1.24146e-10