/*--------------------------------*- C++ -*----------------------------------*\
| =========                 |                                                 |
| \\      /  F ield         | OpenFOAM: The Open Source CFD Toolbox           |
|  \\    /   O peration     | Version:  2412                                  |
|   \\  /    A nd           | Website:  www.openfoam.com                      |
|    \\/     M anipulation  |                                                 |
\*---------------------------------------------------------------------------*/
FoamFile
{
    version     2.0;
    format      ascii;
    arch        "LSB;label=32;scalar=64";
    class       surfaceScalarField;
    location    "4.6";
    object      phi;
}
// * * * * * * * * * * * * * * * * * * * * * * * * * * * * * * * * * * * * * //

dimensions      [0 3 -1 0 0 0 0];

oriented        oriented;

internalField   nonuniform List<scalar> 
43700
(
1.84002e-07
1.84002e-07
5.49537e-07
-2.23762e-07
-2.23762e-07
1.3609e-07
1.63299e-07
5.93618e-07
-1.99621e-07
9.00963e-08
1.49952e-07
6.24924e-07
-1.89451e-07
4.46896e-08
1.41037e-07
6.44998e-07
-1.80916e-07
1.31002e-16
1.36743e-07
6.54852e-07
-1.76977e-07
-4.46896e-08
1.36743e-07
6.54852e-07
-1.76977e-07
-9.00963e-08
1.41037e-07
6.44998e-07
-1.80916e-07
-1.3609e-07
1.49952e-07
6.24924e-07
-1.89451e-07
-1.84002e-07
1.63299e-07
5.93618e-07
-1.99621e-07
1.84002e-07
5.49537e-07
-2.23762e-07
-2.23762e-07
1.63299e-07
1.3609e-07
5.93618e-07
-1.99621e-07
1.21306e-07
1.21306e-07
6.29828e-07
7.98065e-08
1.10066e-07
6.55076e-07
3.94741e-08
1.02557e-07
6.71309e-07
9.9386e-16
9.88825e-08
6.79307e-07
-3.94741e-08
9.88825e-08
6.79307e-07
-7.98065e-08
1.02557e-07
6.71309e-07
-1.21306e-07
1.10066e-07
6.55076e-07
-1.63299e-07
1.21306e-07
6.29828e-07
1.3609e-07
5.93618e-07
-1.99621e-07
1.49952e-07
9.00963e-08
6.24924e-07
-1.89451e-07
1.10066e-07
7.98065e-08
6.55076e-07
7.1891e-08
7.1891e-08
6.76224e-07
3.54368e-08
6.66014e-08
6.89972e-07
3.84659e-16
6.40014e-08
6.96796e-07
-3.54368e-08
6.40014e-08
6.96796e-07
-7.1891e-08
6.66014e-08
6.89972e-07
-1.10066e-07
7.1891e-08
6.76224e-07
-1.49952e-07
7.98065e-08
6.55076e-07
9.00963e-08
6.24924e-07
-1.89451e-07
1.41037e-07
4.46896e-08
6.44998e-07
-1.80916e-07
1.02557e-07
3.94741e-08
6.71309e-07
6.66014e-08
3.54368e-08
6.89972e-07
3.27296e-08
3.27296e-08
7.02246e-07
-3.39816e-16
3.13955e-08
7.08378e-07
-3.27296e-08
3.13955e-08
7.08378e-07
-6.66014e-08
3.27296e-08
7.02246e-07
-1.02557e-07
3.54368e-08
6.89972e-07
-1.41037e-07
3.94741e-08
6.71309e-07
4.46896e-08
6.44998e-07
-1.80916e-07
1.36743e-07
2.91551e-16
6.54852e-07
-1.76977e-07
9.88825e-08
-3.05978e-16
6.79307e-07
6.40014e-08
-1.54333e-16
6.96796e-07
3.13955e-08
6.66515e-17
7.08378e-07
-1.0954e-16
-1.81435e-16
7.14184e-07
-3.13955e-08
3.01533e-16
7.14184e-07
-6.40014e-08
7.04725e-16
7.08378e-07
-9.88825e-08
2.26668e-16
6.96796e-07
-1.36743e-07
-3.59616e-16
6.79307e-07
2.19962e-16
6.54852e-07
-1.76977e-07
1.36743e-07
-4.46896e-08
6.54852e-07
-1.76977e-07
9.88825e-08
-3.94741e-08
6.79307e-07
6.40014e-08
-3.54368e-08
6.96796e-07
3.13955e-08
-3.27296e-08
7.08378e-07
4.62904e-16
-3.13955e-08
7.14184e-07
-3.13955e-08
-3.13955e-08
7.14184e-07
-6.40014e-08
-3.27296e-08
7.08378e-07
-9.88825e-08
-3.54368e-08
6.96796e-07
-1.36743e-07
-3.94741e-08
6.79307e-07
-4.46896e-08
6.54852e-07
-1.76977e-07
1.41037e-07
-9.00963e-08
6.44998e-07
-1.80916e-07
1.02557e-07
-7.98065e-08
6.71309e-07
6.66014e-08
-7.1891e-08
6.89972e-07
3.27296e-08
-6.66014e-08
7.02246e-07
1.89286e-16
-6.40014e-08
7.08378e-07
-3.27296e-08
-6.40014e-08
7.08378e-07
-6.66014e-08
-6.66014e-08
7.02246e-07
-1.02557e-07
-7.1891e-08
6.89972e-07
-1.41037e-07
-7.98065e-08
6.71309e-07
-9.00963e-08
6.44998e-07
-1.80916e-07
1.49952e-07
-1.3609e-07
6.24924e-07
-1.89451e-07
1.10066e-07
-1.21306e-07
6.55076e-07
7.1891e-08
-1.10066e-07
6.76224e-07
3.54368e-08
-1.02557e-07
6.89972e-07
-2.83401e-16
-9.88825e-08
6.96796e-07
-3.54368e-08
-9.88825e-08
6.96796e-07
-7.1891e-08
-1.02557e-07
6.89972e-07
-1.10066e-07
-1.10066e-07
6.76224e-07
-1.49952e-07
-1.21306e-07
6.55076e-07
-1.3609e-07
6.24924e-07
-1.89451e-07
1.63299e-07
-1.84002e-07
5.93618e-07
-1.99621e-07
1.21306e-07
-1.63299e-07
6.29828e-07
7.98065e-08
-1.49952e-07
6.55076e-07
3.94741e-08
-1.41037e-07
6.71309e-07
-4.04127e-16
-1.36743e-07
6.79307e-07
-3.94741e-08
-1.36743e-07
6.79307e-07
-7.98065e-08
-1.41037e-07
6.71309e-07
-1.21306e-07
-1.49952e-07
6.55076e-07
-1.63299e-07
-1.63299e-07
6.29828e-07
-1.84002e-07
5.93618e-07
-1.99621e-07
1.84002e-07
5.49537e-07
-2.23762e-07
-2.23762e-07
1.3609e-07
5.93618e-07
-1.99621e-07
9.00963e-08
6.24924e-07
-1.89451e-07
4.46896e-08
6.44998e-07
-1.80916e-07
6.9452e-16
6.54852e-07
-1.76977e-07
-4.46896e-08
6.54852e-07
-1.76977e-07
-9.00963e-08
6.44998e-07
-1.80916e-07
-1.3609e-07
6.24924e-07
-1.89451e-07
-1.84002e-07
5.93618e-07
-1.99621e-07
5.49537e-07
-2.23762e-07
-2.23762e-07
1.04361e-07
1.04361e-07
5.82222e-07
-1.20703e-07
-1.20703e-07
8.17465e-08
1.02047e-07
6.34e-07
-1.19815e-07
5.58862e-08
9.96519e-08
6.69742e-07
-1.18609e-07
2.82646e-08
9.75688e-08
6.9211e-07
-1.17059e-07
-1.59654e-16
9.65765e-08
7.02936e-07
-1.16396e-07
-2.82646e-08
9.65765e-08
7.02936e-07
-1.16396e-07
-5.58862e-08
9.75688e-08
6.9211e-07
-1.17059e-07
-8.17465e-08
9.96518e-08
6.69742e-07
-1.18609e-07
-1.04361e-07
1.02047e-07
6.34e-07
-1.19815e-07
1.04361e-07
5.82222e-07
-1.20703e-07
-1.20703e-07
1.02047e-07
8.17465e-08
6.34e-07
-1.19815e-07
7.91241e-08
7.91241e-08
6.75674e-07
5.37747e-08
7.66715e-08
7.03406e-07
2.71335e-08
7.47884e-08
7.20731e-07
9.01132e-16
7.38619e-08
7.29155e-07
-2.71335e-08
7.38619e-08
7.29155e-07
-5.37747e-08
7.47884e-08
7.20731e-07
-7.91241e-08
7.66715e-08
7.03406e-07
-1.02047e-07
7.91241e-08
6.75674e-07
8.17465e-08
6.34e-07
-1.19815e-07
9.96519e-08
5.58861e-08
6.69742e-07
-1.18609e-07
7.66715e-08
5.37747e-08
7.03406e-07
5.18997e-08
5.18997e-08
7.25767e-07
2.61597e-08
5.05407e-08
7.3996e-07
6.35651e-16
4.98674e-08
7.4695e-07
-2.61597e-08
4.98674e-08
7.4695e-07
-5.18997e-08
5.05407e-08
7.3996e-07
-7.66715e-08
5.18997e-08
7.25767e-07
-9.96519e-08
5.37747e-08
7.03406e-07
5.58862e-08
6.69742e-07
-1.18609e-07
9.75688e-08
2.82646e-08
6.9211e-07
-1.17059e-07
7.47884e-08
2.71335e-08
7.20731e-07
5.05407e-08
2.61597e-08
7.3996e-07
2.54669e-08
2.54669e-08
7.52394e-07
4.08069e-16
2.5122e-08
7.5859e-07
-2.54669e-08
2.5122e-08
7.5859e-07
-5.05407e-08
2.54669e-08
7.52394e-07
-7.47884e-08
2.61597e-08
7.3996e-07
-9.75688e-08
2.71335e-08
7.20731e-07
2.82646e-08
6.9211e-07
-1.17059e-07
9.65765e-08
-7.68676e-16
7.02936e-07
-1.16396e-07
7.38619e-08
5.77548e-16
7.29155e-07
4.98674e-08
7.59921e-16
7.4695e-07
2.5122e-08
3.78265e-16
7.5859e-07
6.41199e-16
5.97831e-16
7.64428e-07
-2.5122e-08
1.09799e-15
7.64428e-07
-4.98674e-08
1.28689e-15
7.5859e-07
-7.38619e-08
7.9927e-16
7.4695e-07
-9.65765e-08
-5.69337e-16
7.29155e-07
-1.00956e-15
7.02936e-07
-1.16396e-07
9.65765e-08
-2.82646e-08
7.02936e-07
-1.16396e-07
7.38619e-08
-2.71335e-08
7.29155e-07
4.98674e-08
-2.61597e-08
7.4695e-07
2.5122e-08
-2.54669e-08
7.5859e-07
1.17702e-15
-2.5122e-08
7.64428e-07
-2.5122e-08
-2.5122e-08
7.64428e-07
-4.98674e-08
-2.54669e-08
7.5859e-07
-7.38619e-08
-2.61597e-08
7.4695e-07
-9.65765e-08
-2.71335e-08
7.29155e-07
-2.82646e-08
7.02936e-07
-1.16396e-07
9.75688e-08
-5.58862e-08
6.9211e-07
-1.17059e-07
7.47884e-08
-5.37747e-08
7.20731e-07
5.05407e-08
-5.18997e-08
7.3996e-07
2.54669e-08
-5.05407e-08
7.52394e-07
1.29599e-15
-4.98674e-08
7.5859e-07
-2.54669e-08
-4.98674e-08
7.5859e-07
-5.05407e-08
-5.05407e-08
7.52394e-07
-7.47884e-08
-5.18997e-08
7.3996e-07
-9.75688e-08
-5.37747e-08
7.20731e-07
-5.58862e-08
6.9211e-07
-1.17059e-07
9.96519e-08
-8.17465e-08
6.69742e-07
-1.18609e-07
7.66715e-08
-7.91241e-08
7.03406e-07
5.18997e-08
-7.66715e-08
7.25767e-07
2.61597e-08
-7.47884e-08
7.3996e-07
4.47402e-16
-7.38619e-08
7.4695e-07
-2.61597e-08
-7.38619e-08
7.4695e-07
-5.18997e-08
-7.47884e-08
7.3996e-07
-7.66715e-08
-7.66715e-08
7.25767e-07
-9.96519e-08
-7.91241e-08
7.03406e-07
-8.17465e-08
6.69742e-07
-1.18609e-07
1.02047e-07
-1.04361e-07
6.34e-07
-1.19815e-07
7.91241e-08
-1.02047e-07
6.75674e-07
5.37747e-08
-9.96519e-08
7.03406e-07
2.71335e-08
-9.75688e-08
7.20731e-07
-1.47927e-15
-9.65765e-08
7.29155e-07
-2.71335e-08
-9.65765e-08
7.29155e-07
-5.37747e-08
-9.75688e-08
7.20731e-07
-7.91241e-08
-9.96518e-08
7.03406e-07
-1.02047e-07
-1.02047e-07
6.75674e-07
-1.04361e-07
6.34e-07
-1.19815e-07
1.04361e-07
5.82222e-07
-1.20703e-07
-1.20703e-07
8.17465e-08
6.34e-07
-1.19815e-07
5.58862e-08
6.69742e-07
-1.18609e-07
2.82646e-08
6.9211e-07
-1.17059e-07
-1.50699e-15
7.02936e-07
-1.16396e-07
-2.82646e-08
7.02936e-07
-1.16396e-07
-5.58862e-08
6.9211e-07
-1.17059e-07
-8.17465e-08
6.69742e-07
-1.18609e-07
-1.04361e-07
6.34e-07
-1.19815e-07
5.82222e-07
-1.20703e-07
-1.20703e-07
6.56599e-08
6.56599e-08
5.90027e-07
-6.95624e-08
-6.95624e-08
5.49731e-08
6.91041e-08
6.4926e-07
-7.36771e-08
3.92581e-08
7.08067e-08
6.90419e-07
-7.57691e-08
2.03812e-08
7.14567e-08
7.16307e-07
-7.6777e-08
-7.48317e-16
7.17295e-08
7.28859e-07
-7.72709e-08
-2.03812e-08
7.17295e-08
7.28859e-07
-7.72709e-08
-3.92581e-08
7.14567e-08
7.16307e-07
-7.6777e-08
-5.49731e-08
7.08067e-08
6.90419e-07
-7.57691e-08
-6.56599e-08
6.91041e-08
6.4926e-07
-7.36771e-08
6.56599e-08
5.90027e-07
-6.95624e-08
-6.95624e-08
6.91041e-08
5.49731e-08
6.4926e-07
-7.36771e-08
5.75435e-08
5.75435e-08
6.98795e-07
4.10315e-08
5.87654e-08
7.31959e-07
2.12915e-08
5.91762e-08
7.52752e-07
2.37596e-15
5.93081e-08
7.62868e-07
-2.12915e-08
5.93081e-08
7.62868e-07
-4.10315e-08
5.91762e-08
7.52752e-07
-5.75434e-08
5.87654e-08
7.31959e-07
-6.91041e-08
5.75434e-08
6.98795e-07
5.49731e-08
6.4926e-07
-7.36771e-08
7.08067e-08
3.92581e-08
6.90419e-07
-7.57691e-08
5.87654e-08
4.10315e-08
7.31959e-07
4.18253e-08
4.18253e-08
7.59648e-07
2.16908e-08
4.20633e-08
7.77207e-07
1.85087e-15
4.21161e-08
7.85833e-07
-2.16908e-08
4.21161e-08
7.85833e-07
-4.18253e-08
4.20633e-08
7.77207e-07
-5.87654e-08
4.18253e-08
7.59648e-07
-7.08067e-08
4.10315e-08
7.31959e-07
3.92581e-08
6.90419e-07
-7.57691e-08
7.14567e-08
2.03812e-08
7.16307e-07
-7.6777e-08
5.91762e-08
2.12915e-08
7.52752e-07
4.20633e-08
2.16908e-08
7.77207e-07
2.18031e-08
2.18031e-08
7.92915e-07
1.16759e-15
2.18204e-08
8.00689e-07
-2.18031e-08
2.18204e-08
8.00689e-07
-4.20633e-08
2.18031e-08
7.92915e-07
-5.91762e-08
2.16908e-08
7.77207e-07
-7.14567e-08
2.12915e-08
7.52752e-07
2.03812e-08
7.16307e-07
-7.6777e-08
7.17295e-08
-3.509e-17
7.28859e-07
-7.72709e-08
5.93081e-08
2.52585e-15
7.62868e-07
4.21161e-08
2.22461e-15
7.85833e-07
2.18204e-08
1.76047e-15
8.00689e-07
9.10509e-16
1.3509e-15
8.08068e-07
-2.18204e-08
1.48762e-15
8.08068e-07
-4.21161e-08
1.0099e-15
8.00689e-07
-5.93081e-08
-7.9979e-17
7.85833e-07
-7.17295e-08
-2.49192e-15
7.62868e-07
-3.24294e-15
7.28859e-07
-7.72709e-08
7.17295e-08
-2.03812e-08
7.28859e-07
-7.72709e-08
5.93081e-08
-2.12915e-08
7.62868e-07
4.21161e-08
-2.16908e-08
7.85833e-07
2.18204e-08
-2.18031e-08
8.00689e-07
9.73397e-16
-2.18204e-08
8.08068e-07
-2.18204e-08
-2.18204e-08
8.08068e-07
-4.21161e-08
-2.18031e-08
8.00689e-07
-5.93081e-08
-2.16908e-08
7.85833e-07
-7.17295e-08
-2.12915e-08
7.62868e-07
-2.03813e-08
7.28859e-07
-7.72709e-08
7.14567e-08
-3.92581e-08
7.16307e-07
-7.6777e-08
5.91762e-08
-4.10315e-08
7.52752e-07
4.20633e-08
-4.18253e-08
7.77207e-07
2.18031e-08
-4.20633e-08
7.92915e-07
5.44758e-16
-4.21161e-08
8.00689e-07
-2.18031e-08
-4.21161e-08
8.00689e-07
-4.20633e-08
-4.20633e-08
7.92915e-07
-5.91762e-08
-4.18253e-08
7.77207e-07
-7.14567e-08
-4.10315e-08
7.52752e-07
-3.92581e-08
7.16307e-07
-7.6777e-08
7.08067e-08
-5.49731e-08
6.90419e-07
-7.57691e-08
5.87654e-08
-5.75434e-08
7.31959e-07
4.18253e-08
-5.87654e-08
7.59648e-07
2.16908e-08
-5.91762e-08
7.77207e-07
-1.94097e-16
-5.93081e-08
7.85833e-07
-2.16908e-08
-5.93081e-08
7.85833e-07
-4.18253e-08
-5.91762e-08
7.77207e-07
-5.87654e-08
-5.87654e-08
7.59648e-07
-7.08067e-08
-5.75435e-08
7.31959e-07
-5.49731e-08
6.90419e-07
-7.57691e-08
6.91041e-08
-6.56599e-08
6.4926e-07
-7.36771e-08
5.75434e-08
-6.91041e-08
6.98795e-07
4.10315e-08
-7.08067e-08
7.31959e-07
2.12915e-08
-7.14567e-08
7.52752e-07
-2.35614e-15
-7.17295e-08
7.62868e-07
-2.12915e-08
-7.17295e-08
7.62868e-07
-4.10315e-08
-7.14567e-08
7.52752e-07
-5.75435e-08
-7.08067e-08
7.31959e-07
-6.91041e-08
-6.91041e-08
6.98795e-07
-6.56599e-08
6.4926e-07
-7.36771e-08
6.56599e-08
5.90027e-07
-6.95624e-08
-6.95624e-08
5.49731e-08
6.4926e-07
-7.36771e-08
3.92581e-08
6.90419e-07
-7.57691e-08
2.03812e-08
7.16307e-07
-7.6777e-08
-1.99793e-15
7.28859e-07
-7.72709e-08
-2.03812e-08
7.28859e-07
-7.72709e-08
-3.92581e-08
7.16307e-07
-7.6777e-08
-5.49731e-08
6.90419e-07
-7.57691e-08
-6.56599e-08
6.4926e-07
-7.36771e-08
5.90027e-07
-6.95624e-08
-6.95624e-08
2.44152e-08
2.44152e-08
5.88932e-07
-2.38674e-08
-2.38674e-08
2.20129e-08
2.85018e-08
6.50992e-07
-2.78317e-08
1.64801e-08
3.12069e-08
6.94856e-07
-3.01103e-08
8.80354e-09
3.28186e-08
7.22796e-07
-3.16316e-08
-5.01069e-16
3.35943e-08
7.36438e-07
-3.23704e-08
-8.80355e-09
3.35943e-08
7.36438e-07
-3.23704e-08
-1.64801e-08
3.28186e-08
7.22796e-07
-3.16316e-08
-2.20129e-08
3.12069e-08
6.94856e-07
-3.01103e-08
-2.44152e-08
2.85018e-08
6.50992e-07
-2.78317e-08
2.44152e-08
5.88932e-07
-2.38674e-08
-2.38674e-08
2.85018e-08
2.20129e-08
6.50992e-07
-2.78317e-08
2.55008e-08
2.55008e-08
7.04797e-07
1.9086e-08
2.78973e-08
7.41683e-07
1.01844e-08
2.93038e-08
7.65168e-07
1.15289e-15
2.9963e-08
7.76684e-07
-1.01844e-08
2.9963e-08
7.76684e-07
-1.9086e-08
2.93039e-08
7.65168e-07
-2.55008e-08
2.78973e-08
7.41683e-07
-2.85018e-08
2.55008e-08
7.04797e-07
2.20129e-08
6.50992e-07
-2.78317e-08
3.12069e-08
1.64801e-08
6.94856e-07
-3.01103e-08
2.78973e-08
1.9086e-08
7.41683e-07
2.08438e-08
2.08438e-08
7.73755e-07
1.11102e-08
2.18615e-08
7.94383e-07
1.09994e-15
2.23285e-08
8.04578e-07
-1.11102e-08
2.23285e-08
8.04578e-07
-2.08438e-08
2.18616e-08
7.94383e-07
-2.78973e-08
2.08438e-08
7.73755e-07
-3.12069e-08
1.9086e-08
7.41683e-07
1.64801e-08
6.94856e-07
-3.01103e-08
3.28186e-08
8.80355e-09
7.22796e-07
-3.16316e-08
2.93038e-08
1.01844e-08
7.65168e-07
2.18615e-08
1.11102e-08
7.94383e-07
1.1642e-08
1.1642e-08
8.13354e-07
7.72691e-16
1.18828e-08
8.22776e-07
-1.1642e-08
1.18828e-08
8.22776e-07
-2.18615e-08
1.1642e-08
8.13354e-07
-2.93038e-08
1.11102e-08
7.94383e-07
-3.28186e-08
1.01844e-08
7.65168e-07
8.80354e-09
7.22796e-07
-3.16316e-08
3.35943e-08
1.18513e-15
7.36438e-07
-3.23704e-08
2.9963e-08
1.14683e-15
7.76684e-07
2.23285e-08
9.41659e-16
8.04578e-07
1.18828e-08
1.05391e-15
8.22776e-07
9.34157e-16
1.01582e-15
8.31834e-07
-1.18828e-08
1.49518e-15
8.31834e-07
-2.23285e-08
1.31077e-15
8.22776e-07
-2.9963e-08
6.01412e-16
8.04578e-07
-3.35943e-08
-2.2182e-15
7.76684e-07
-2.98581e-15
7.36438e-07
-3.23704e-08
3.35943e-08
-8.80354e-09
7.36438e-07
-3.23704e-08
2.9963e-08
-1.01844e-08
7.76684e-07
2.23285e-08
-1.11102e-08
8.04578e-07
1.18828e-08
-1.1642e-08
8.22776e-07
1.32831e-15
-1.18828e-08
8.31834e-07
-1.18828e-08
-1.18828e-08
8.31834e-07
-2.23285e-08
-1.1642e-08
8.22776e-07
-2.9963e-08
-1.11102e-08
8.04578e-07
-3.35943e-08
-1.01844e-08
7.76684e-07
-8.80355e-09
7.36438e-07
-3.23704e-08
3.28186e-08
-1.64801e-08
7.22796e-07
-3.16316e-08
2.93038e-08
-1.9086e-08
7.65168e-07
2.18615e-08
-2.08438e-08
7.94383e-07
1.1642e-08
-2.18615e-08
8.13354e-07
1.05952e-15
-2.23285e-08
8.22776e-07
-1.1642e-08
-2.23285e-08
8.22776e-07
-2.18615e-08
-2.18615e-08
8.13354e-07
-2.93039e-08
-2.08438e-08
7.94383e-07
-3.28186e-08
-1.9086e-08
7.65168e-07
-1.64801e-08
7.22796e-07
-3.16316e-08
3.12069e-08
-2.20129e-08
6.94856e-07
-3.01103e-08
2.78973e-08
-2.55008e-08
7.41683e-07
2.08438e-08
-2.78973e-08
7.73755e-07
1.11102e-08
-2.93038e-08
7.94383e-07
7.01559e-16
-2.9963e-08
8.04578e-07
-1.11102e-08
-2.9963e-08
8.04578e-07
-2.08438e-08
-2.93038e-08
7.94383e-07
-2.78973e-08
-2.78973e-08
7.73755e-07
-3.12069e-08
-2.55008e-08
7.41683e-07
-2.20129e-08
6.94856e-07
-3.01103e-08
2.85018e-08
-2.44152e-08
6.50992e-07
-2.78317e-08
2.55008e-08
-2.85018e-08
7.04797e-07
1.9086e-08
-3.12069e-08
7.41683e-07
1.01844e-08
-3.28186e-08
7.65168e-07
-1.45577e-15
-3.35943e-08
7.76684e-07
-1.01844e-08
-3.35943e-08
7.76684e-07
-1.9086e-08
-3.28185e-08
7.65168e-07
-2.55008e-08
-3.12069e-08
7.41683e-07
-2.85018e-08
-2.85018e-08
7.04797e-07
-2.44152e-08
6.50992e-07
-2.78317e-08
2.44152e-08
5.88932e-07
-2.38674e-08
-2.38674e-08
2.20129e-08
6.50992e-07
-2.78317e-08
1.64801e-08
6.94856e-07
-3.01103e-08
8.80354e-09
7.22796e-07
-3.16316e-08
-2.17558e-15
7.36438e-07
-3.23704e-08
-8.80355e-09
7.36438e-07
-3.23704e-08
-1.64801e-08
7.22796e-07
-3.16316e-08
-2.20129e-08
6.94856e-07
-3.01103e-08
-2.44152e-08
6.50992e-07
-2.78317e-08
5.88932e-07
-2.38675e-08
-2.38675e-08
9.13672e-09
9.13672e-09
5.87459e-07
-8.40027e-09
-8.40027e-09
8.55237e-09
1.11338e-08
6.50574e-07
-1.0131e-08
6.5665e-09
1.25421e-08
6.95546e-07
-1.12467e-08
3.56087e-09
1.34449e-08
7.24381e-07
-1.20242e-08
2.3973e-16
1.38865e-08
7.38513e-07
-1.24e-08
-3.56087e-09
1.38865e-08
7.38513e-07
-1.24e-08
-6.5665e-09
1.34449e-08
7.24381e-07
-1.20242e-08
-8.55237e-09
1.25421e-08
6.95546e-07
-1.12467e-08
-9.13671e-09
1.11338e-08
6.50574e-07
-1.0131e-08
9.13672e-09
5.87459e-07
-8.40027e-09
-8.40027e-09
1.11338e-08
8.55237e-09
6.50574e-07
-1.0131e-08
1.04116e-08
1.04116e-08
7.06242e-07
8.00627e-09
1.17532e-08
7.44877e-07
4.33797e-09
1.25903e-08
7.69691e-07
1.99567e-15
1.29949e-08
7.81913e-07
-4.33797e-09
1.29949e-08
7.81913e-07
-8.00626e-09
1.25903e-08
7.69691e-07
-1.04116e-08
1.17532e-08
7.44877e-07
-1.11338e-08
1.04116e-08
7.06242e-07
8.55237e-09
6.50574e-07
-1.0131e-08
1.25421e-08
6.5665e-09
6.95546e-07
-1.12467e-08
1.17532e-08
8.00627e-09
7.44877e-07
9.03873e-09
9.03873e-09
7.79183e-07
4.89457e-09
9.67388e-09
8.01444e-07
1.75054e-15
9.97713e-09
8.1249e-07
-4.89457e-09
9.97713e-09
8.1249e-07
-9.03873e-09
9.67388e-09
8.01444e-07
-1.17532e-08
9.03872e-09
7.79183e-07
-1.25421e-08
8.00626e-09
7.44877e-07
6.5665e-09
6.95546e-07
-1.12467e-08
1.34449e-08
3.56087e-09
7.24381e-07
-1.20242e-08
1.25903e-08
4.33797e-09
7.69691e-07
9.67388e-09
4.89457e-09
8.01444e-07
5.23608e-09
5.23608e-09
8.22229e-07
1.16193e-15
5.39833e-09
8.32591e-07
-5.23608e-09
5.39833e-09
8.32591e-07
-9.67388e-09
5.23608e-09
8.22229e-07
-1.25903e-08
4.89457e-09
8.01444e-07
-1.34449e-08
4.33797e-09
7.69691e-07
3.56087e-09
7.24381e-07
-1.20242e-08
1.38865e-08
5.02854e-16
7.38513e-07
-1.24e-08
1.29949e-08
1.83199e-15
7.81913e-07
9.97713e-09
1.84847e-15
8.1249e-07
5.39833e-09
1.51264e-15
8.32591e-07
7.94502e-16
1.19293e-15
8.42631e-07
-5.39833e-09
1.11899e-15
8.42631e-07
-9.97712e-09
7.25884e-16
8.32591e-07
-1.29949e-08
2.97772e-17
8.1249e-07
-1.38865e-08
-9.43616e-16
7.81913e-07
-3.55766e-16
7.38513e-07
-1.24e-08
1.38865e-08
-3.56087e-09
7.38513e-07
-1.24e-08
1.29949e-08
-4.33797e-09
7.81913e-07
9.97713e-09
-4.89457e-09
8.1249e-07
5.39833e-09
-5.23608e-09
8.32591e-07
6.43647e-16
-5.39833e-09
8.42631e-07
-5.39833e-09
-5.39833e-09
8.42631e-07
-9.97712e-09
-5.23608e-09
8.32591e-07
-1.29949e-08
-4.89457e-09
8.1249e-07
-1.38865e-08
-4.33797e-09
7.81913e-07
-3.56087e-09
7.38513e-07
-1.24e-08
1.34449e-08
-6.5665e-09
7.24381e-07
-1.20242e-08
1.25903e-08
-8.00626e-09
7.69691e-07
9.67388e-09
-9.03872e-09
8.01444e-07
5.23608e-09
-9.67388e-09
8.22229e-07
3.96914e-16
-9.97712e-09
8.32591e-07
-5.23608e-09
-9.97712e-09
8.32591e-07
-9.67388e-09
-9.67388e-09
8.22229e-07
-1.25903e-08
-9.03872e-09
8.01444e-07
-1.34449e-08
-8.00626e-09
7.69691e-07
-6.5665e-09
7.24381e-07
-1.20242e-08
1.25421e-08
-8.55237e-09
6.95546e-07
-1.12467e-08
1.17532e-08
-1.04116e-08
7.44877e-07
9.03873e-09
-1.17532e-08
7.79183e-07
4.89457e-09
-1.25903e-08
8.01444e-07
-1.84409e-17
-1.29949e-08
8.1249e-07
-4.89457e-09
-1.29949e-08
8.1249e-07
-9.03872e-09
-1.25903e-08
8.01444e-07
-1.17532e-08
-1.17532e-08
7.79183e-07
-1.25421e-08
-1.04116e-08
7.44877e-07
-8.55237e-09
6.95546e-07
-1.12467e-08
1.11338e-08
-9.13671e-09
6.50574e-07
-1.0131e-08
1.04116e-08
-1.11338e-08
7.06242e-07
8.00626e-09
-1.25421e-08
7.44877e-07
4.33797e-09
-1.34449e-08
7.69691e-07
-1.55238e-15
-1.38865e-08
7.81913e-07
-4.33797e-09
-1.38865e-08
7.81913e-07
-8.00626e-09
-1.34449e-08
7.69691e-07
-1.04116e-08
-1.25421e-08
7.44877e-07
-1.11338e-08
-1.11338e-08
7.06242e-07
-9.13671e-09
6.50574e-07
-1.0131e-08
9.13671e-09
5.87459e-07
-8.40027e-09
-8.40027e-09
8.55237e-09
6.50574e-07
-1.0131e-08
6.56649e-09
6.95546e-07
-1.12467e-08
3.56087e-09
7.24381e-07
-1.20242e-08
-1.06802e-15
7.38513e-07
-1.24e-08
-3.56088e-09
7.38513e-07
-1.24e-08
-6.5665e-09
7.24381e-07
-1.20242e-08
-8.55237e-09
6.95546e-07
-1.12467e-08
-9.13672e-09
6.50574e-07
-1.0131e-08
5.87459e-07
-8.40027e-09
-8.40027e-09
2.98433e-09
2.98433e-09
5.8648e-07
-2.4949e-09
-2.4949e-09
2.97386e-09
3.92405e-09
6.49912e-07
-3.25215e-09
2.37333e-09
4.61585e-09
6.953e-07
-3.76966e-09
1.31611e-09
5.07836e-09
7.24505e-07
-4.14523e-09
2.14219e-17
5.30674e-09
7.38848e-07
-4.32582e-09
-1.31611e-09
5.30674e-09
7.38848e-07
-4.32582e-09
-2.37333e-09
5.07836e-09
7.24505e-07
-4.14523e-09
-2.97386e-09
4.61585e-09
6.953e-07
-3.76966e-09
-2.98433e-09
3.92405e-09
6.49912e-07
-3.25215e-09
2.98433e-09
5.8648e-07
-2.4949e-09
-2.4949e-09
3.92405e-09
2.97386e-09
6.49912e-07
-3.25215e-09
3.88885e-09
3.88885e-09
7.06312e-07
3.09607e-09
4.57368e-09
7.45712e-07
1.70986e-09
5.017e-09
7.71138e-07
9.53431e-17
5.2345e-09
7.83695e-07
-1.70986e-09
5.2345e-09
7.83695e-07
-3.09607e-09
5.017e-09
7.71138e-07
-3.88885e-09
4.57368e-09
7.45712e-07
-3.92405e-09
3.88885e-09
7.06312e-07
2.97386e-09
6.49912e-07
-3.25216e-09
4.61585e-09
2.37333e-09
6.953e-07
-3.76966e-09
4.57368e-09
3.09608e-09
7.45712e-07
3.63527e-09
3.63527e-09
7.8106e-07
2.00359e-09
3.97849e-09
8.04114e-07
9.09228e-17
4.14505e-09
8.15583e-07
-2.00359e-09
4.14505e-09
8.15583e-07
-3.63527e-09
3.97849e-09
8.04114e-07
-4.57368e-09
3.63527e-09
7.8106e-07
-4.61585e-09
3.09607e-09
7.45712e-07
2.37333e-09
6.953e-07
-3.76966e-09
5.07836e-09
1.31611e-09
7.24505e-07
-4.14523e-09
5.017e-09
1.70986e-09
7.71138e-07
3.97849e-09
2.00359e-09
8.04114e-07
2.18978e-09
2.18978e-09
8.25807e-07
5.40507e-16
2.27966e-09
8.36646e-07
-2.18978e-09
2.27966e-09
8.36646e-07
-3.97849e-09
2.18978e-09
8.25807e-07
-5.017e-09
2.00359e-09
8.04114e-07
-5.07836e-09
1.70986e-09
7.71138e-07
1.31611e-09
7.24505e-07
-4.14523e-09
5.30674e-09
5.65145e-16
7.38848e-07
-4.32582e-09
5.2345e-09
4.05597e-16
7.83695e-07
4.14505e-09
3.12644e-17
8.15583e-07
2.27966e-09
3.26959e-16
8.36646e-07
8.19054e-16
7.21494e-16
8.4719e-07
-2.27966e-09
9.96653e-16
8.4719e-07
-4.14504e-09
1.11999e-15
8.36646e-07
-5.2345e-09
5.8377e-16
8.15583e-07
-5.30674e-09
-5.38182e-16
7.83695e-07
-3.23441e-16
7.38848e-07
-4.32582e-09
5.30674e-09
-1.3161e-09
7.38848e-07
-4.32582e-09
5.2345e-09
-1.70986e-09
7.83695e-07
4.14505e-09
-2.00359e-09
8.15583e-07
2.27966e-09
-2.18978e-09
8.36646e-07
1.22036e-15
-2.27966e-09
8.4719e-07
-2.27966e-09
-2.27966e-09
8.4719e-07
-4.14504e-09
-2.18978e-09
8.36646e-07
-5.2345e-09
-2.00359e-09
8.15583e-07
-5.30674e-09
-1.70986e-09
7.83695e-07
-1.31611e-09
7.38848e-07
-4.32582e-09
5.07836e-09
-2.37333e-09
7.24505e-07
-4.14523e-09
5.017e-09
-3.09607e-09
7.71138e-07
3.97849e-09
-3.63527e-09
8.04114e-07
2.18978e-09
-3.97849e-09
8.25807e-07
1.05461e-15
-4.14504e-09
8.36646e-07
-2.18978e-09
-4.14504e-09
8.36646e-07
-3.97849e-09
-3.97849e-09
8.25807e-07
-5.017e-09
-3.63527e-09
8.04114e-07
-5.07836e-09
-3.09608e-09
7.71138e-07
-2.37333e-09
7.24505e-07
-4.14523e-09
4.61585e-09
-2.97386e-09
6.953e-07
-3.76965e-09
4.57367e-09
-3.88885e-09
7.45712e-07
3.63527e-09
-4.57368e-09
7.8106e-07
2.00359e-09
-5.017e-09
8.04114e-07
9.89058e-17
-5.2345e-09
8.15583e-07
-2.00359e-09
-5.2345e-09
8.15583e-07
-3.63527e-09
-5.017e-09
8.04114e-07
-4.57368e-09
-4.57367e-09
7.8106e-07
-4.61585e-09
-3.88885e-09
7.45712e-07
-2.97386e-09
6.953e-07
-3.76966e-09
3.92405e-09
-2.98433e-09
6.49912e-07
-3.25215e-09
3.88885e-09
-3.92405e-09
7.06312e-07
3.09607e-09
-4.61585e-09
7.45712e-07
1.70986e-09
-5.07836e-09
7.71138e-07
-9.41362e-16
-5.30674e-09
7.83695e-07
-1.70986e-09
-5.30674e-09
7.83695e-07
-3.09608e-09
-5.07836e-09
7.71138e-07
-3.88885e-09
-4.61585e-09
7.45712e-07
-3.92405e-09
-3.92405e-09
7.06312e-07
-2.98433e-09
6.49912e-07
-3.25216e-09
2.98433e-09
5.8648e-07
-2.4949e-09
-2.4949e-09
2.97386e-09
6.49912e-07
-3.25215e-09
2.37333e-09
6.953e-07
-3.76966e-09
1.31611e-09
7.24505e-07
-4.14523e-09
-5.14938e-16
7.38848e-07
-4.32582e-09
-1.31611e-09
7.38848e-07
-4.32582e-09
-2.37333e-09
7.24505e-07
-4.14523e-09
-2.97386e-09
6.953e-07
-3.76965e-09
-2.98433e-09
6.49912e-07
-3.25216e-09
5.8648e-07
-2.4949e-09
-2.4949e-09
8.08364e-10
8.08366e-10
5.86065e-07
-6.00836e-10
-6.00836e-10
8.7188e-10
1.18192e-09
6.49549e-07
-8.8182e-10
7.27257e-10
1.47103e-09
6.95052e-07
-1.07829e-09
4.13577e-10
1.67506e-09
7.24376e-07
-1.23208e-09
5.56151e-16
1.77736e-09
7.3879e-07
-1.30647e-09
-4.13576e-10
1.77736e-09
7.3879e-07
-1.30647e-09
-7.27256e-10
1.67506e-09
7.24376e-07
-1.23208e-09
-8.7188e-10
1.47103e-09
6.95052e-07
-1.07829e-09
-8.08362e-10
1.18192e-09
6.49549e-07
-8.81819e-10
8.08365e-10
5.86065e-07
-6.00834e-10
-6.00836e-10
1.18192e-09
8.71883e-10
6.49549e-07
-8.81819e-10
1.2519e-09
1.2519e-09
7.06172e-07
1.03651e-09
1.55304e-09
7.45846e-07
5.84978e-10
1.75799e-09
7.71507e-07
8.31221e-16
1.86077e-09
7.84197e-07
-5.84976e-10
1.86077e-09
7.84197e-07
-1.03651e-09
1.75799e-09
7.71507e-07
-1.2519e-09
1.55304e-09
7.45846e-07
-1.18192e-09
1.2519e-09
7.06172e-07
8.71883e-10
6.49549e-07
-8.81818e-10
1.47103e-09
7.27259e-10
6.95052e-07
-1.07829e-09
1.55304e-09
1.03652e-09
7.45846e-07
1.28127e-09
1.28127e-09
7.81604e-07
7.20579e-10
1.44491e-09
8.04988e-07
1.15108e-15
1.5264e-09
8.16638e-07
-7.20576e-10
1.5264e-09
8.16638e-07
-1.28127e-09
1.44491e-09
8.04988e-07
-1.55304e-09
1.28127e-09
7.81604e-07
-1.47103e-09
1.03651e-09
7.45846e-07
7.27258e-10
6.95052e-07
-1.07829e-09
1.67506e-09
4.13578e-10
7.24376e-07
-1.23208e-09
1.75799e-09
5.84979e-10
7.71507e-07
1.44491e-09
7.20578e-10
8.04988e-07
8.10817e-10
8.10817e-10
8.27075e-07
1.0584e-15
8.55604e-10
8.38128e-07
-8.10815e-10
8.55604e-10
8.38128e-07
-1.44491e-09
8.10816e-10
8.27075e-07
-1.75799e-09
7.20577e-10
8.04988e-07
-1.67506e-09
5.84977e-10
7.71507e-07
4.13577e-10
7.24376e-07
-1.23208e-09
1.77736e-09
6.50287e-16
7.3879e-07
-1.30647e-09
1.86077e-09
1.29142e-15
7.84197e-07
1.5264e-09
1.04438e-15
8.16638e-07
8.55604e-10
1.00965e-15
8.38128e-07
7.71134e-16
1.00794e-15
8.48901e-07
-8.55602e-10
8.76506e-16
8.48901e-07
-1.5264e-09
7.08271e-16
8.38128e-07
-1.86077e-09
4.94323e-16
8.16638e-07
-1.77736e-09
5.7532e-17
7.84197e-07
-8.18321e-17
7.3879e-07
-1.30647e-09
1.77736e-09
-4.13577e-10
7.3879e-07
-1.30647e-09
1.86077e-09
-5.84976e-10
7.84197e-07
1.5264e-09
-7.20576e-10
8.16638e-07
8.55604e-10
-8.10815e-10
8.38128e-07
7.3245e-16
-8.55602e-10
8.48901e-07
-8.55602e-10
-8.55602e-10
8.48901e-07
-1.52639e-09
-8.10815e-10
8.38128e-07
-1.86077e-09
-7.20576e-10
8.16638e-07
-1.77736e-09
-5.84977e-10
7.84197e-07
-4.13577e-10
7.3879e-07
-1.30647e-09
1.67506e-09
-7.27258e-10
7.24376e-07
-1.23208e-09
1.75799e-09
-1.03651e-09
7.71507e-07
1.44491e-09
-1.28127e-09
8.04988e-07
8.10816e-10
-1.44491e-09
8.27075e-07
6.32255e-16
-1.5264e-09
8.38128e-07
-8.10815e-10
-1.52639e-09
8.38128e-07
-1.44491e-09
-1.44491e-09
8.27075e-07
-1.75799e-09
-1.28127e-09
8.04988e-07
-1.67506e-09
-1.03651e-09
7.71507e-07
-7.27259e-10
7.24376e-07
-1.23207e-09
1.47103e-09
-8.71882e-10
6.95052e-07
-1.07829e-09
1.55304e-09
-1.2519e-09
7.45846e-07
1.28127e-09
-1.55304e-09
7.81604e-07
7.20578e-10
-1.75799e-09
8.04988e-07
7.45272e-16
-1.86077e-09
8.16638e-07
-7.20576e-10
-1.86077e-09
8.16638e-07
-1.28127e-09
-1.75799e-09
8.04988e-07
-1.55304e-09
-1.55304e-09
7.81604e-07
-1.47103e-09
-1.2519e-09
7.45846e-07
-8.71883e-10
6.95052e-07
-1.07829e-09
1.18192e-09
-8.08365e-10
6.49549e-07
-8.81819e-10
1.2519e-09
-1.18192e-09
7.06172e-07
1.03651e-09
-1.47103e-09
7.45846e-07
5.84978e-10
-1.67506e-09
7.71507e-07
6.83153e-16
-1.77736e-09
7.84197e-07
-5.84976e-10
-1.77736e-09
7.84197e-07
-1.03651e-09
-1.67506e-09
7.71507e-07
-1.2519e-09
-1.47103e-09
7.45846e-07
-1.18192e-09
-1.18192e-09
7.06172e-07
-8.08365e-10
6.49549e-07
-8.81818e-10
8.08363e-10
5.86065e-07
-6.00836e-10
-6.00835e-10
8.71881e-10
6.49549e-07
-8.81818e-10
7.27257e-10
6.95052e-07
-1.07829e-09
4.13577e-10
7.24376e-07
-1.23208e-09
3.54103e-16
7.3879e-07
-1.30647e-09
-4.13576e-10
7.3879e-07
-1.30647e-09
-7.27257e-10
7.24376e-07
-1.23207e-09
-8.7188e-10
6.95052e-07
-1.07829e-09
-8.08364e-10
6.49549e-07
-8.81819e-10
5.86065e-07
-6.00836e-10
-6.00836e-10
2.00591e-10
2.0059e-10
5.85917e-07
-1.26633e-10
-1.26633e-10
2.35937e-10
3.27927e-10
6.49403e-07
-2.17608e-10
2.05524e-10
4.29983e-10
6.94935e-07
-2.81988e-10
1.19751e-10
5.05405e-10
7.24292e-07
-3.35603e-10
4.09432e-16
5.43508e-10
7.38728e-07
-3.61114e-10
-1.1975e-10
5.43508e-10
7.38728e-07
-3.61114e-10
-2.05523e-10
5.05405e-10
7.24292e-07
-3.35603e-10
-2.35936e-10
4.29983e-10
6.94935e-07
-2.81988e-10
-2.0059e-10
3.27927e-10
6.49403e-07
-2.17608e-10
2.00589e-10
5.85917e-07
-1.26632e-10
-1.26632e-10
3.27927e-10
2.35937e-10
6.49403e-07
-2.17608e-10
3.70413e-10
3.70411e-10
7.06087e-07
3.17729e-10
4.81737e-10
7.45847e-07
1.82812e-10
5.60829e-10
7.71586e-07
2.56407e-16
6.01165e-10
7.84322e-07
-1.82811e-10
6.01165e-10
7.84322e-07
-3.17728e-10
5.60829e-10
7.71586e-07
-3.70412e-10
4.81738e-10
7.45847e-07
-3.27927e-10
3.70413e-10
7.06087e-07
2.35936e-10
6.49403e-07
-2.17607e-10
4.29983e-10
2.05523e-10
6.94935e-07
-2.81988e-10
4.81737e-10
3.17728e-10
7.45847e-07
4.10995e-10
4.10996e-10
7.81745e-07
2.35344e-10
4.76105e-10
8.05248e-07
-6.49584e-17
5.09226e-10
8.16965e-07
-2.35344e-10
5.09226e-10
8.16965e-07
-4.10996e-10
4.76106e-10
8.05248e-07
-4.81737e-10
4.10996e-10
7.81745e-07
-4.29982e-10
3.17729e-10
7.45847e-07
2.05522e-10
6.94935e-07
-2.81988e-10
5.05404e-10
1.19751e-10
7.24292e-07
-3.35603e-10
5.60828e-10
1.82812e-10
7.71586e-07
4.76105e-10
2.35344e-10
8.05248e-07
2.71876e-10
2.71876e-10
8.27483e-07
-9.28025e-17
2.90441e-10
8.38619e-07
-2.71876e-10
2.90441e-10
8.38619e-07
-4.76105e-10
2.71876e-10
8.27483e-07
-5.60829e-10
2.35345e-10
8.05248e-07
-5.05404e-10