/*--------------------------------*- C++ -*----------------------------------*\
| =========                 |                                                 |
| \\      /  F ield         | OpenFOAM: The Open Source CFD Toolbox           |
|  \\    /   O peration     | Version:  2412                                  |
|   \\  /    A nd           | Website:  www.openfoam.com                      |
|    \\/     M anipulation  |                                                 |
\*---------------------------------------------------------------------------*/
FoamFile
{
    version     2.0;
    format      ascii;
    arch        "LSB;label=32;scalar=64";
    class       volVectorField;
    location    "4.6";
    object      U;
}
// * * * * * * * * * * * * * * * * * * * * * * * * * * * * * * * * * * * * * //

dimensions      [0 1 -1 0 0 0 0];

internalField   nonuniform List<vector> 
15000
(
(0.00120611 0.00120611 0.0104895)
(0.00089139 0.00113029 0.010469)
(0.000607475 0.00110502 0.010441)
(0.0003565 0.00107942 0.0104174)
(0.000117045 0.00106753 0.0104047)
(-0.000117045 0.00106753 0.0104047)
(-0.0003565 0.00107942 0.0104174)
(-0.000607475 0.00110502 0.010441)
(-0.00089139 0.00113029 0.010469)
(-0.00120611 0.00120611 0.0104895)
(0.00113029 0.00089139 0.010469)
(0.000840819 0.000840819 0.0104232)
(0.000574822 0.000804055 0.0103794)
(0.000334799 0.000777648 0.010348)
(0.000109749 0.000764739 0.0103321)
(-0.000109749 0.000764739 0.0103321)
(-0.000334799 0.000777648 0.010348)
(-0.000574822 0.000804055 0.0103794)
(-0.000840819 0.000840819 0.0104232)
(-0.00113029 0.00089139 0.010469)
(0.00110502 0.000607475 0.010441)
(0.000804055 0.000574822 0.0103794)
(0.00054493 0.00054493 0.0103285)
(0.000315306 0.000523134 0.0102941)
(0.00010309 0.000512138 0.010277)
(-0.00010309 0.000512138 0.010277)
(-0.000315306 0.000523134 0.0102941)
(-0.00054493 0.00054493 0.0103285)
(-0.000804055 0.000574822 0.0103794)
(-0.00110502 0.000607475 0.010441)
(0.00107942 0.0003565 0.0104174)
(0.000777648 0.000334799 0.010348)
(0.000523134 0.000315306 0.0102941)
(0.000301116 0.000301116 0.0102585)
(9.8224e-05 0.000293896 0.010241)
(-9.8224e-05 0.000293896 0.010241)
(-0.000301116 0.000301116 0.0102585)
(-0.000523134 0.000315306 0.0102941)
(-0.000777648 0.000334799 0.010348)
(-0.00107942 0.0003565 0.0104174)
(0.00106753 0.000117045 0.0104047)
(0.000764739 0.000109749 0.0103321)
(0.000512138 0.00010309 0.010277)
(0.000293896 9.8224e-05 0.010241)
(9.57419e-05 9.57419e-05 0.0102233)
(-9.57419e-05 9.57419e-05 0.0102233)
(-0.000293896 9.8224e-05 0.010241)
(-0.000512138 0.00010309 0.010277)
(-0.000764739 0.000109749 0.0103321)
(-0.00106753 0.000117045 0.0104047)
(0.00106753 -0.000117045 0.0104047)
(0.000764739 -0.000109749 0.0103321)
(0.000512138 -0.00010309 0.010277)
(0.000293896 -9.8224e-05 0.010241)
(9.57419e-05 -9.57419e-05 0.0102233)
(-9.57419e-05 -9.57419e-05 0.0102233)
(-0.000293896 -9.8224e-05 0.010241)
(-0.000512138 -0.00010309 0.010277)
(-0.000764739 -0.000109749 0.0103321)
(-0.00106753 -0.000117045 0.0104047)
(0.00107942 -0.0003565 0.0104174)
(0.000777648 -0.000334799 0.010348)
(0.000523134 -0.000315306 0.0102941)
(0.000301116 -0.000301116 0.0102585)
(9.8224e-05 -0.000293896 0.010241)
(-9.8224e-05 -0.000293896 0.010241)
(-0.000301116 -0.000301116 0.0102585)
(-0.000523134 -0.000315306 0.0102941)
(-0.000777648 -0.000334798 0.010348)
(-0.00107942 -0.0003565 0.0104174)
(0.00110502 -0.000607475 0.010441)
(0.000804055 -0.000574822 0.0103794)
(0.00054493 -0.00054493 0.0103285)
(0.000315306 -0.000523134 0.0102941)
(0.00010309 -0.000512138 0.010277)
(-0.00010309 -0.000512138 0.010277)
(-0.000315306 -0.000523134 0.0102941)
(-0.00054493 -0.00054493 0.0103285)
(-0.000804055 -0.000574822 0.0103794)
(-0.00110502 -0.000607475 0.010441)
(0.00113029 -0.00089139 0.010469)
(0.000840819 -0.000840819 0.0104232)
(0.000574822 -0.000804055 0.0103794)
(0.000334799 -0.000777648 0.010348)
(0.000109749 -0.000764739 0.0103321)
(-0.000109749 -0.000764739 0.0103321)
(-0.000334799 -0.000777648 0.010348)
(-0.000574822 -0.000804055 0.0103794)
(-0.000840819 -0.000840819 0.0104232)
(-0.00113029 -0.00089139 0.010469)
(0.00120611 -0.00120611 0.0104895)
(0.00089139 -0.00113029 0.010469)
(0.000607475 -0.00110502 0.010441)
(0.0003565 -0.00107942 0.0104174)
(0.000117045 -0.00106753 0.0104047)
(-0.000117045 -0.00106753 0.0104047)
(-0.0003565 -0.00107942 0.0104174)
(-0.000607475 -0.00110502 0.010441)
(-0.00089139 -0.00113029 0.010469)
(-0.00120611 -0.00120611 0.0104895)
(0.000653427 0.000653427 0.0125706)
(0.000516808 0.000687919 0.0125264)
(0.000367706 0.000711426 0.0124293)
(0.000220455 0.000722947 0.0123399)
(7.30725e-05 0.000729189 0.01229)
(-7.30725e-05 0.000729189 0.01229)
(-0.000220455 0.000722947 0.0123399)
(-0.000367706 0.000711426 0.0124293)
(-0.000516808 0.000687919 0.0125264)
(-0.000653427 0.000653427 0.0125706)
(0.000687919 0.000516808 0.0125264)
(0.000537428 0.000537428 0.0123618)
(0.000380638 0.000548831 0.0121839)
(0.000226896 0.000554024 0.0120513)
(7.52434e-05 0.000556745 0.0119828)
(-7.52434e-05 0.000556745 0.0119828)
(-0.000226896 0.000554024 0.0120513)
(-0.000380638 0.000548831 0.0121839)
(-0.000537428 0.000537428 0.0123618)
(-0.000687919 0.000516808 0.0125264)
(0.000711426 0.000367706 0.0124293)
(0.000548831 0.000380638 0.0121839)
(0.000387234 0.000387234 0.011965)
(0.00023028 0.000390231 0.011814)
(7.6375e-05 0.000391686 0.0117387)
(-7.6375e-05 0.000391686 0.0117387)
(-0.00023028 0.000390231 0.011814)
(-0.000387234 0.000387234 0.011965)
(-0.000548831 0.000380638 0.0121839)
(-0.000711426 0.000367706 0.0124293)
(0.000722947 0.000220455 0.0123399)
(0.000554024 0.000226896 0.0120513)
(0.000390231 0.00023028 0.011814)
(0.000231907 0.000231907 0.0116564)
(7.6929e-05 0.000232682 0.0115791)
(-7.6929e-05 0.000232682 0.0115791)
(-0.000231907 0.000231907 0.0116564)
(-0.000390231 0.00023028 0.011814)
(-0.000554024 0.000226896 0.0120513)
(-0.000722947 0.000220455 0.0123399)
(0.000729189 7.30725e-05 0.01229)
(0.000556745 7.52434e-05 0.0119828)
(0.000391686 7.6375e-05 0.0117387)
(0.000232682 7.6929e-05 0.0115791)
(7.7189e-05 7.7189e-05 0.0115014)
(-7.7189e-05 7.7189e-05 0.0115014)
(-0.000232682 7.6929e-05 0.0115791)
(-0.000391686 7.6375e-05 0.0117387)
(-0.000556745 7.52434e-05 0.0119828)
(-0.000729189 7.30725e-05 0.01229)
(0.000729189 -7.30725e-05 0.01229)
(0.000556745 -7.52434e-05 0.0119828)
(0.000391686 -7.6375e-05 0.0117387)
(0.000232682 -7.6929e-05 0.0115791)
(7.7189e-05 -7.7189e-05 0.0115014)
(-7.7189e-05 -7.7189e-05 0.0115014)
(-0.000232682 -7.6929e-05 0.0115791)
(-0.000391686 -7.6375e-05 0.0117387)
(-0.000556745 -7.52434e-05 0.0119828)
(-0.000729189 -7.30725e-05 0.01229)
(0.000722947 -0.000220455 0.0123399)
(0.000554024 -0.000226896 0.0120513)
(0.000390231 -0.00023028 0.011814)
(0.000231907 -0.000231907 0.0116564)
(7.6929e-05 -0.000232682 0.0115791)
(-7.6929e-05 -0.000232682 0.0115791)
(-0.000231907 -0.000231907 0.0116564)
(-0.000390231 -0.00023028 0.011814)
(-0.000554024 -0.000226896 0.0120513)
(-0.000722947 -0.000220455 0.0123399)
(0.000711426 -0.000367706 0.0124293)
(0.000548831 -0.000380638 0.0121839)
(0.000387234 -0.000387234 0.011965)
(0.00023028 -0.000390231 0.011814)
(7.6375e-05 -0.000391686 0.0117387)
(-7.6375e-05 -0.000391686 0.0117387)
(-0.00023028 -0.000390231 0.011814)
(-0.000387234 -0.000387234 0.011965)
(-0.000548831 -0.000380638 0.0121839)
(-0.000711426 -0.000367706 0.0124293)
(0.000687918 -0.000516808 0.0125264)
(0.000537428 -0.000537428 0.0123618)
(0.000380638 -0.000548831 0.0121839)
(0.000226896 -0.000554024 0.0120513)
(7.52434e-05 -0.000556745 0.0119828)
(-7.52434e-05 -0.000556745 0.0119828)
(-0.000226896 -0.000554024 0.0120513)
(-0.000380638 -0.000548831 0.0121839)
(-0.000537428 -0.000537428 0.0123618)
(-0.000687919 -0.000516808 0.0125264)
(0.000653427 -0.000653427 0.0125706)
(0.000516808 -0.000687918 0.0125264)
(0.000367706 -0.000711426 0.0124293)
(0.000220455 -0.000722947 0.0123399)
(7.30725e-05 -0.000729189 0.01229)
(-7.30725e-05 -0.000729189 0.01229)
(-0.000220455 -0.000722947 0.0123399)
(-0.000367706 -0.000711426 0.0124293)
(-0.000516808 -0.000687919 0.0125264)
(-0.000653427 -0.000653427 0.0125706)
(0.000403572 0.000403572 0.0124361)
(0.000339169 0.000451926 0.0125915)
(0.00025575 0.000487054 0.0126177)
(0.000158819 0.00050916 0.0125992)
(5.3604e-05 0.000520467 0.0125818)
(-5.3604e-05 0.000520467 0.0125818)
(-0.000158819 0.00050916 0.0125992)
(-0.00025575 0.000487054 0.0126177)
(-0.000339169 0.000451926 0.0125915)
(-0.000403572 0.000403572 0.0124361)
(0.000451926 0.000339169 0.0125915)
(0.000381169 0.000381169 0.0126055)
(0.000286532 0.000409866 0.0125336)
(0.000177478 0.000427291 0.0124619)
(5.99643e-05 0.000435913 0.0124217)
(-5.99643e-05 0.000435913 0.0124217)
(-0.000177478 0.000427291 0.0124619)
(-0.000286532 0.000409866 0.0125336)
(-0.000381169 0.000381169 0.0126055)
(-0.000451926 0.000339169 0.0125915)
(0.000487054 0.00025575 0.0126177)
(0.000409866 0.000286532 0.0125336)
(0.00030755 0.00030755 0.0124096)
(0.000190147 0.000320154 0.0123142)
(6.42456e-05 0.000326223 0.0122649)
(-6.42455e-05 0.000326223 0.0122649)
(-0.000190147 0.000320154 0.0123142)
(-0.00030755 0.00030755 0.0124096)
(-0.000409866 0.000286532 0.0125336)
(-0.000487054 0.00025575 0.0126177)
(0.00050916 0.000158819 0.0125992)
(0.000427291 0.000177478 0.0124619)
(0.000320154 0.000190147 0.0123142)
(0.000197702 0.000197702 0.0122094)
(6.67808e-05 0.00020128 0.0121569)
(-6.67808e-05 0.00020128 0.0121569)
(-0.000197702 0.000197702 0.0122094)
(-0.000320154 0.000190147 0.0123142)
(-0.000427291 0.000177478 0.0124619)
(-0.00050916 0.000158819 0.0125992)
(0.000520467 5.3604e-05 0.0125818)
(0.000435913 5.99643e-05 0.0124217)
(0.000326223 6.42456e-05 0.0122649)
(0.00020128 6.67808e-05 0.0121569)
(6.79695e-05 6.79695e-05 0.0121035)
(-6.79695e-05 6.79695e-05 0.0121035)
(-0.00020128 6.67808e-05 0.0121569)
(-0.000326223 6.42456e-05 0.0122649)
(-0.000435913 5.99643e-05 0.0124217)
(-0.000520467 5.3604e-05 0.0125818)
(0.000520467 -5.3604e-05 0.0125818)
(0.000435913 -5.99643e-05 0.0124217)
(0.000326223 -6.42455e-05 0.0122649)
(0.00020128 -6.67808e-05 0.0121569)
(6.79695e-05 -6.79695e-05 0.0121035)
(-6.79695e-05 -6.79695e-05 0.0121035)
(-0.00020128 -6.67808e-05 0.0121569)
(-0.000326223 -6.42456e-05 0.0122649)
(-0.000435913 -5.99643e-05 0.0124217)
(-0.000520467 -5.3604e-05 0.0125818)
(0.00050916 -0.000158819 0.0125992)
(0.000427291 -0.000177478 0.0124619)
(0.000320154 -0.000190147 0.0123142)
(0.000197702 -0.000197702 0.0122094)
(6.67808e-05 -0.00020128 0.0121569)
(-6.67808e-05 -0.00020128 0.0121569)
(-0.000197702 -0.000197702 0.0122094)
(-0.000320154 -0.000190147 0.0123142)
(-0.000427291 -0.000177478 0.0124619)
(-0.00050916 -0.000158819 0.0125992)
(0.000487054 -0.00025575 0.0126177)
(0.000409866 -0.000286532 0.0125336)
(0.00030755 -0.00030755 0.0124096)
(0.000190147 -0.000320154 0.0123142)
(6.42456e-05 -0.000326223 0.0122649)
(-6.42456e-05 -0.000326223 0.0122649)
(-0.000190147 -0.000320154 0.0123142)
(-0.00030755 -0.00030755 0.0124096)
(-0.000409866 -0.000286532 0.0125336)
(-0.000487054 -0.00025575 0.0126177)
(0.000451926 -0.000339169 0.0125915)
(0.000381169 -0.000381169 0.0126055)
(0.000286532 -0.000409866 0.0125336)
(0.000177478 -0.000427291 0.0124619)
(5.99643e-05 -0.000435913 0.0124217)
(-5.99643e-05 -0.000435913 0.0124217)
(-0.000177478 -0.000427291 0.0124619)
(-0.000286532 -0.000409866 0.0125336)
(-0.000381169 -0.000381169 0.0126055)
(-0.000451926 -0.000339169 0.0125915)
(0.000403572 -0.000403572 0.0124361)
(0.000339169 -0.000451926 0.0125915)
(0.00025575 -0.000487054 0.0126177)
(0.000158819 -0.00050916 0.0125992)
(5.3604e-05 -0.000520467 0.0125818)
(-5.3604e-05 -0.000520467 0.0125818)
(-0.000158819 -0.00050916 0.0125992)
(-0.00025575 -0.000487054 0.0126177)
(-0.000339169 -0.000451926 0.0125915)
(-0.000403572 -0.000403572 0.0124361)
(0.000144989 0.000144989 0.0125752)
(0.000130814 0.000180535 0.0128035)
(0.000105354 0.000206641 0.0128852)
(6.78083e-05 0.000224941 0.0129032)
(2.33031e-05 0.000234321 0.0129036)
(-2.33031e-05 0.000234321 0.0129036)
(-6.78083e-05 0.000224941 0.0129032)
(-0.000105354 0.000206641 0.0128852)
(-0.000130814 0.000180535 0.0128035)
(-0.000144989 0.000144989 0.0125752)
(0.000180535 0.000130814 0.0128035)
(0.000164509 0.000164509 0.0129044)
(0.000131273 0.000189698 0.0128944)
(8.43497e-05 0.000206364 0.0128621)
(2.90044e-05 0.000214768 0.0128407)
(-2.90044e-05 0.000214768 0.0128407)
(-8.43497e-05 0.000206364 0.0128621)
(-0.000131273 0.000189698 0.0128944)
(-0.000164509 0.000164509 0.0129044)
(-0.000180535 0.000130814 0.0128035)
(0.000206641 0.000105354 0.0128852)
(0.000189698 0.000131273 0.0128944)
(0.000151173 0.000151173 0.0128345)
(9.69418e-05 0.000164181 0.0127786)
(3.33254e-05 0.000170654 0.0127479)
(-3.33253e-05 0.000170654 0.0127479)
(-9.69417e-05 0.000164181 0.0127786)
(-0.000151173 0.000151173 0.0128345)
(-0.000189698 0.000131273 0.0128944)
(-0.000206641 0.000105354 0.0128852)
(0.000224941 6.78083e-05 0.0129032)
(0.000206364 8.43497e-05 0.0128621)
(0.000164181 9.69418e-05 0.0127786)
(0.000105128 0.000105128 0.0127126)
(3.61229e-05 0.000109167 0.0126783)
(-3.61229e-05 0.000109167 0.0126783)
(-0.000105128 0.000105128 0.0127126)
(-0.000164181 9.69417e-05 0.0127786)
(-0.000206364 8.43497e-05 0.0128621)
(-0.000224941 6.78083e-05 0.0129032)
(0.000234321 2.33031e-05 0.0129036)
(0.000214768 2.90044e-05 0.0128407)
(0.000170654 3.33254e-05 0.0127479)
(0.000109167 3.61229e-05 0.0126783)
(3.7496e-05 3.7496e-05 0.0126427)
(-3.74959e-05 3.7496e-05 0.0126427)
(-0.000109167 3.61229e-05 0.0126783)
(-0.000170654 3.33253e-05 0.0127479)
(-0.000214768 2.90043e-05 0.0128407)
(-0.000234321 2.33031e-05 0.0129036)
(0.000234321 -2.33031e-05 0.0129036)
(0.000214768 -2.90044e-05 0.0128407)
(0.000170654 -3.33253e-05 0.0127479)
(0.000109167 -3.61229e-05 0.0126783)
(3.7496e-05 -3.74959e-05 0.0126427)
(-3.74959e-05 -3.74959e-05 0.0126427)
(-0.000109167 -3.61229e-05 0.0126783)
(-0.000170654 -3.33253e-05 0.0127479)
(-0.000214768 -2.90044e-05 0.0128407)
(-0.000234321 -2.33031e-05 0.0129036)
(0.000224941 -6.78083e-05 0.0129032)
(0.000206364 -8.43497e-05 0.0128621)
(0.000164181 -9.69417e-05 0.0127786)
(0.000105128 -0.000105128 0.0127126)
(3.61229e-05 -0.000109167 0.0126783)
(-3.61229e-05 -0.000109167 0.0126783)
(-0.000105128 -0.000105128 0.0127126)
(-0.000164181 -9.69417e-05 0.0127786)
(-0.000206364 -8.43497e-05 0.0128621)
(-0.000224941 -6.78083e-05 0.0129032)
(0.000206641 -0.000105354 0.0128852)
(0.000189698 -0.000131273 0.0128944)
(0.000151173 -0.000151173 0.0128345)
(9.69418e-05 -0.000164181 0.0127786)
(3.33253e-05 -0.000170654 0.0127479)
(-3.33253e-05 -0.000170654 0.0127479)
(-9.69417e-05 -0.000164181 0.0127786)
(-0.000151173 -0.000151173 0.0128345)
(-0.000189698 -0.000131273 0.0128944)
(-0.000206641 -0.000105354 0.0128852)
(0.000180535 -0.000130814 0.0128035)
(0.000164509 -0.000164509 0.0129044)
(0.000131273 -0.000189698 0.0128944)
(8.43497e-05 -0.000206364 0.0128621)
(2.90044e-05 -0.000214768 0.0128407)
(-2.90044e-05 -0.000214768 0.0128407)
(-8.43497e-05 -0.000206364 0.0128621)
(-0.000131273 -0.000189698 0.0128944)
(-0.000164508 -0.000164508 0.0129044)
(-0.000180535 -0.000130814 0.0128035)
(0.000144989 -0.000144989 0.0125752)
(0.000130814 -0.000180535 0.0128035)
(0.000105354 -0.000206641 0.0128852)
(6.78083e-05 -0.000224941 0.0129032)
(2.33031e-05 -0.000234321 0.0129036)
(-2.33031e-05 -0.000234321 0.0129036)
(-6.78083e-05 -0.000224941 0.0129032)
(-0.000105354 -0.000206641 0.0128852)
(-0.000130814 -0.000180535 0.0128035)
(-0.000144989 -0.000144989 0.0125752)
(5.3661e-05 5.3661e-05 0.0125193)
(4.99765e-05 6.90589e-05 0.0127887)
(4.18597e-05 8.10493e-05 0.0129062)
(2.74729e-05 8.98639e-05 0.0129501)
(9.53637e-06 9.44197e-05 0.0129638)
(-9.53637e-06 9.44197e-05 0.0129638)
(-2.74729e-05 8.98639e-05 0.0129501)
(-4.18597e-05 8.10494e-05 0.0129062)
(-4.99765e-05 6.90589e-05 0.0127887)
(-5.3661e-05 5.3661e-05 0.0125193)
(6.90589e-05 4.99765e-05 0.0127887)
(6.61766e-05 6.61766e-05 0.0129467)
(5.47882e-05 7.8799e-05 0.0129834)
(3.59412e-05 8.74752e-05 0.0129835)
(1.24794e-05 9.1916e-05 0.0129785)
(-1.24794e-05 9.1916e-05 0.0129785)
(-3.59412e-05 8.74752e-05 0.0129835)
(-5.47883e-05 7.8799e-05 0.0129834)
(-6.61766e-05 6.61766e-05 0.0129467)
(-6.90589e-05 4.99765e-05 0.0127887)
(8.10493e-05 4.18597e-05 0.0129062)
(7.8799e-05 5.47883e-05 0.0129834)
(6.5175e-05 6.5175e-05 0.012977)
(4.27078e-05 7.22348e-05 0.0129569)
(1.483e-05 7.58207e-05 0.0129442)
(-1.483e-05 7.58207e-05 0.0129442)
(-4.27078e-05 7.22348e-05 0.0129569)
(-6.5175e-05 6.5175e-05 0.012977)
(-7.8799e-05 5.47883e-05 0.0129834)
(-8.10494e-05 4.18597e-05 0.0129062)
(8.98639e-05 2.74729e-05 0.0129501)
(8.74752e-05 3.59412e-05 0.0129835)
(7.22348e-05 4.27078e-05 0.0129569)
(4.72826e-05 4.72826e-05 0.0129285)
(1.64158e-05 4.95946e-05 0.0129126)
(-1.64158e-05 4.95946e-05 0.0129126)
(-4.72826e-05 4.72826e-05 0.0129285)
(-7.22348e-05 4.27078e-05 0.0129569)
(-8.74752e-05 3.59412e-05 0.0129835)
(-8.98639e-05 2.74729e-05 0.0129501)
(9.44197e-05 9.53637e-06 0.0129638)
(9.1916e-05 1.24794e-05 0.0129785)
(7.58207e-05 1.483e-05 0.0129442)
(4.95946e-05 1.64158e-05 0.0129126)
(1.72153e-05 1.72153e-05 0.0128956)
(-1.72153e-05 1.72153e-05 0.0128956)
(-4.95945e-05 1.64158e-05 0.0129126)
(-7.58207e-05 1.483e-05 0.0129442)
(-9.1916e-05 1.24794e-05 0.0129785)
(-9.44197e-05 9.53636e-06 0.0129638)
(9.44197e-05 -9.53636e-06 0.0129638)
(9.1916e-05 -1.24794e-05 0.0129785)
(7.58207e-05 -1.483e-05 0.0129442)
(4.95945e-05 -1.64158e-05 0.0129126)
(1.72153e-05 -1.72153e-05 0.0128956)
(-1.72153e-05 -1.72153e-05 0.0128956)
(-4.95945e-05 -1.64158e-05 0.0129126)
(-7.58207e-05 -1.483e-05 0.0129442)
(-9.1916e-05 -1.24794e-05 0.0129785)
(-9.44197e-05 -9.53637e-06 0.0129638)
(8.98639e-05 -2.74729e-05 0.0129501)
(8.74752e-05 -3.59412e-05 0.0129835)
(7.22348e-05 -4.27078e-05 0.0129569)
(4.72826e-05 -4.72826e-05 0.0129285)
(1.64158e-05 -4.95945e-05 0.0129126)
(-1.64158e-05 -4.95945e-05 0.0129126)
(-4.72826e-05 -4.72826e-05 0.0129285)
(-7.22348e-05 -4.27078e-05 0.0129569)
(-8.74752e-05 -3.59412e-05 0.0129835)
(-8.98639e-05 -2.74729e-05 0.0129501)
(8.10494e-05 -4.18597e-05 0.0129062)
(7.8799e-05 -5.47883e-05 0.0129834)
(6.5175e-05 -6.5175e-05 0.012977)
(4.27078e-05 -7.22348e-05 0.0129569)
(1.483e-05 -7.58207e-05 0.0129442)
(-1.483e-05 -7.58207e-05 0.0129442)
(-4.27078e-05 -7.22348e-05 0.0129569)
(-6.5175e-05 -6.5175e-05 0.012977)
(-7.8799e-05 -5.47882e-05 0.0129834)
(-8.10493e-05 -4.18596e-05 0.0129062)
(6.90589e-05 -4.99765e-05 0.0127887)
(6.61766e-05 -6.61766e-05 0.0129467)
(5.47883e-05 -7.8799e-05 0.0129834)
(3.59412e-05 -8.74752e-05 0.0129835)
(1.24794e-05 -9.1916e-05 0.0129785)
(-1.24794e-05 -9.1916e-05 0.0129785)
(-3.59412e-05 -8.74752e-05 0.0129835)
(-5.47882e-05 -7.8799e-05 0.0129834)
(-6.61766e-05 -6.61766e-05 0.0129467)
(-6.90589e-05 -4.99765e-05 0.0127887)
(5.3661e-05 -5.3661e-05 0.0125193)
(4.99765e-05 -6.90589e-05 0.0127887)
(4.18597e-05 -8.10494e-05 0.0129062)
(2.74729e-05 -8.98639e-05 0.0129501)
(9.53636e-06 -9.44197e-05 0.0129638)
(-9.53637e-06 -9.44197e-05 0.0129638)
(-2.74729e-05 -8.98638e-05 0.0129501)
(-4.18596e-05 -8.10493e-05 0.0129062)
(-4.99765e-05 -6.90589e-05 0.0127887)
(-5.3661e-05 -5.36611e-05 0.0125193)
(1.70088e-05 1.70088e-05 0.0124836)
(1.6873e-05 2.35787e-05 0.0127634)
(1.49804e-05 2.88386e-05 0.0128924)
(1.01155e-05 3.28366e-05 0.0129457)
(3.56293e-06 3.49125e-05 0.0129645)
(-3.56293e-06 3.49125e-05 0.0129645)
(-1.01155e-05 3.28366e-05 0.0129457)
(-1.49803e-05 2.88386e-05 0.0128924)
(-1.6873e-05 2.35787e-05 0.0127634)
(-1.70088e-05 1.70088e-05 0.0124836)
(2.35787e-05 1.6873e-05 0.0127634)
(2.41754e-05 2.41754e-05 0.0129414)
(2.09731e-05 3.00513e-05 0.0129969)
(1.41201e-05 3.42119e-05 0.013011)
(4.96277e-06 3.63622e-05 0.0130134)
(-4.96277e-06 3.63622e-05 0.0130134)
(-1.41201e-05 3.42119e-05 0.013011)
(-2.0973e-05 3.00513e-05 0.0129969)
(-2.41754e-05 2.41754e-05 0.0129414)
(-2.35787e-05 1.6873e-05 0.0127634)
(2.88386e-05 1.49803e-05 0.0128924)
(3.00513e-05 2.09731e-05 0.0129969)
(2.59549e-05 2.59549e-05 0.0130145)
(1.743e-05 2.94342e-05 0.0130117)
(6.121e-06 3.12224e-05 0.0130078)
(-6.121e-06 3.12224e-05 0.0130078)
(-1.743e-05 2.94342e-05 0.0130117)
(-2.59549e-05 2.59549e-05 0.0130145)
(-3.00513e-05 2.0973e-05 0.0129969)
(-2.88386e-05 1.49803e-05 0.0128924)
(3.28366e-05 1.01155e-05 0.0129457)
(3.42119e-05 1.41201e-05 0.013011)
(2.94342e-05 1.743e-05 0.0130117)
(1.97236e-05 1.97236e-05 0.0130022)
(6.92161e-06 2.08962e-05 0.0129961)
(-6.9216e-06 2.08962e-05 0.0129961)
(-1.97236e-05 1.97236e-05 0.0130022)
(-2.94342e-05 1.743e-05 0.0130117)
(-3.42119e-05 1.41201e-05 0.013011)
(-3.28366e-05 1.01155e-05 0.0129457)
(3.49125e-05 3.56293e-06 0.0129645)
(3.63622e-05 4.96277e-06 0.0130134)
(3.12224e-05 6.12099e-06 0.0130078)
(2.08962e-05 6.92161e-06 0.0129961)
(7.32982e-06 7.32982e-06 0.0129891)
(-7.32981e-06 7.32982e-06 0.0129891)
(-2.08962e-05 6.92161e-06 0.0129961)
(-3.12224e-05 6.121e-06 0.0130078)
(-3.63622e-05 4.96277e-06 0.0130134)
(-3.49125e-05 3.56292e-06 0.0129645)
(3.49125e-05 -3.56292e-06 0.0129645)
(3.63622e-05 -4.96277e-06 0.0130134)
(3.12224e-05 -6.12099e-06 0.0130078)
(2.08962e-05 -6.9216e-06 0.0129961)
(7.32982e-06 -7.32981e-06 0.0129891)
(-7.32981e-06 -7.32981e-06 0.0129891)
(-2.08962e-05 -6.9216e-06 0.0129961)
(-3.12224e-05 -6.12099e-06 0.0130078)
(-3.63622e-05 -4.96277e-06 0.0130134)
(-3.49125e-05 -3.56292e-06 0.0129645)
(3.28366e-05 -1.01155e-05 0.0129457)
(3.42119e-05 -1.41201e-05 0.013011)
(2.94342e-05 -1.743e-05 0.0130117)
(1.97236e-05 -1.97236e-05 0.0130022)
(6.92161e-06 -2.08962e-05 0.0129961)
(-6.9216e-06 -2.08962e-05 0.0129961)
(-1.97236e-05 -1.97236e-05 0.0130022)
(-2.94342e-05 -1.743e-05 0.0130117)
(-3.42119e-05 -1.41201e-05 0.013011)
(-3.28366e-05 -1.01155e-05 0.0129457)
(2.88386e-05 -1.49803e-05 0.0128924)
(3.00513e-05 -2.0973e-05 0.0129969)
(2.59549e-05 -2.59549e-05 0.0130145)
(1.743e-05 -2.94342e-05 0.0130117)
(6.12099e-06 -3.12224e-05 0.0130078)
(-6.12099e-06 -3.12224e-05 0.0130078)
(-1.743e-05 -2.94342e-05 0.0130117)
(-2.59549e-05 -2.59548e-05 0.0130145)
(-3.00513e-05 -2.0973e-05 0.0129969)
(-2.88386e-05 -1.49803e-05 0.0128924)
(2.35787e-05 -1.6873e-05 0.0127634)
(2.41754e-05 -2.41754e-05 0.0129414)
(2.09731e-05 -3.00513e-05 0.0129969)
(1.41201e-05 -3.42119e-05 0.013011)
(4.96276e-06 -3.63622e-05 0.0130134)
(-4.96277e-06 -3.63622e-05 0.0130134)
(-1.41201e-05 -3.42119e-05 0.013011)
(-2.0973e-05 -3.00513e-05 0.0129969)
(-2.41754e-05 -2.41754e-05 0.0129414)
(-2.35787e-05 -1.6873e-05 0.0127634)
(1.70088e-05 -1.70088e-05 0.0124836)
(1.6873e-05 -2.35787e-05 0.0127634)
(1.49803e-05 -2.88386e-05 0.0128924)
(1.01155e-05 -3.28366e-05 0.0129457)
(3.56292e-06 -3.49125e-05 0.0129645)
(-3.56292e-06 -3.49125e-05 0.0129645)
(-1.01155e-05 -3.28366e-05 0.0129457)
(-1.49803e-05 -2.88386e-05 0.0128924)
(-1.6873e-05 -2.35787e-05 0.0127634)
(-1.70088e-05 -1.70088e-05 0.0124836)
(4.41881e-06 4.41881e-06 0.0124713)
(4.75539e-06 6.84085e-06 0.0127537)
(4.53283e-06 8.83638e-06 0.0128865)
(3.15623e-06 1.04317e-05 0.0129429)
(1.13139e-06 1.12615e-05 0.0129635)
(-1.13139e-06 1.12615e-05 0.0129635)
(-3.15622e-06 1.04317e-05 0.0129429)
(-4.53283e-06 8.83639e-06 0.0128865)
(-4.7554e-06 6.84086e-06 0.0127537)
(-4.41882e-06 4.41881e-06 0.0124713)
(6.84085e-06 4.7554e-06 0.0127537)
(7.5942e-06 7.5942e-06 0.0129384)
(6.95045e-06 9.98474e-06 0.0130007)
(4.81381e-06 1.17475e-05 0.0130202)
(1.71524e-06 1.26721e-05 0.0130255)
(-1.71523e-06 1.26721e-05 0.0130255)
(-4.8138e-06 1.17475e-05 0.0130202)
(-6.95046e-06 9.98474e-06 0.0130007)
(-7.59421e-06 7.59421e-06 0.0129384)
(-6.84086e-06 4.7554e-06 0.0127537)
(8.83638e-06 4.53283e-06 0.0128865)
(9.98473e-06 6.95046e-06 0.0130007)
(9.06029e-06 9.06029e-06 0.0130277)
(6.25266e-06 1.05906e-05 0.0130318)
(2.2238e-06 1.13911e-05 0.0130315)
(-2.22379e-06 1.13911e-05 0.0130315)
(-6.25265e-06 1.05906e-05 0.0130318)
(-9.06029e-06 9.06029e-06 0.0130277)
(-9.98474e-06 6.95046e-06 0.0130007)
(-8.83639e-06 4.53283e-06 0.0128865)
(1.04316e-05 3.15623e-06 0.0129429)
(1.17475e-05 4.81381e-06 0.0130202)
(1.05906e-05 6.25266e-06 0.0130318)
(7.28671e-06 7.28672e-06 0.0130303)
(2.58855e-06 7.82529e-06 0.0130282)
(-2.58854e-06 7.82528e-06 0.0130282)
(-7.2867e-06 7.28671e-06 0.0130303)
(-1.05906e-05 6.25266e-06 0.0130318)
(-1.17475e-05 4.81381e-06 0.0130202)
(-1.04317e-05 3.15623e-06 0.0129429)
(1.12615e-05 1.13139e-06 0.0129635)
(1.26721e-05 1.71524e-06 0.0130255)
(1.13911e-05 2.22381e-06 0.0130315)
(7.82528e-06 2.58856e-06 0.0130282)
(2.77819e-06 2.77819e-06 0.0130256)
(-2.77818e-06 2.77819e-06 0.0130256)
(-7.82527e-06 2.58855e-06 0.0130282)
(-1.13911e-05 2.2238e-06 0.0130315)
(-1.26721e-05 1.71524e-06 0.0130255)
(-1.12615e-05 1.13139e-06 0.0129635)
(1.12615e-05 -1.13138e-06 0.0129635)
(1.26721e-05 -1.71523e-06 0.0130255)
(1.13911e-05 -2.22379e-06 0.0130315)
(7.82528e-06 -2.58854e-06 0.0130282)
(2.77819e-06 -2.77818e-06 0.0130256)
(-2.77818e-06 -2.77818e-06 0.0130256)
(-7.82527e-06 -2.58854e-06 0.0130282)
(-1.13911e-05 -2.22379e-06 0.0130315)
(-1.26721e-05 -1.71523e-06 0.0130255)
(-1.12615e-05 -1.13139e-06 0.0129635)
(1.04317e-05 -3.15622e-06 0.0129429)
(1.17475e-05 -4.8138e-06 0.0130202)
(1.05906e-05 -6.25265e-06 0.0130318)
(7.28671e-06 -7.2867e-06 0.0130303)
(2.58855e-06 -7.82527e-06 0.0130282)
(-2.58854e-06 -7.82527e-06 0.0130282)
(-7.2867e-06 -7.2867e-06 0.0130303)
(-1.05906e-05 -6.25265e-06 0.0130318)
(-1.17475e-05 -4.8138e-06 0.0130202)
(-1.04316e-05 -3.15622e-06 0.0129429)
(8.83639e-06 -4.53283e-06 0.0128865)
(9.98474e-06 -6.95046e-06 0.0130007)
(9.06029e-06 -9.06028e-06 0.0130277)
(6.25266e-06 -1.05906e-05 0.0130318)
(2.2238e-06 -1.13911e-05 0.0130315)
(-2.22379e-06 -1.13911e-05 0.0130315)
(-6.25265e-06 -1.05906e-05 0.0130318)
(-9.06029e-06 -9.06028e-06 0.0130277)
(-9.98474e-06 -6.95045e-06 0.0130007)
(-8.83638e-06 -4.53282e-06 0.0128865)
(6.84086e-06 -4.7554e-06 0.0127537)
(7.59422e-06 -7.59421e-06 0.0129384)
(6.95046e-06 -9.98474e-06 0.0130007)
(4.8138e-06 -1.17475e-05 0.0130202)
(1.71524e-06 -1.26721e-05 0.0130255)
(-1.71523e-06 -1.26721e-05 0.0130255)
(-4.8138e-06 -1.17475e-05 0.0130202)
(-6.95046e-06 -9.98474e-06 0.0130007)
(-7.5942e-06 -7.5942e-06 0.0129384)
(-6.84085e-06 -4.75538e-06 0.0127537)
(4.41882e-06 -4.41882e-06 0.0124713)
(4.7554e-06 -6.84086e-06 0.0127537)
(4.53283e-06 -8.8364e-06 0.0128865)
(3.15623e-06 -1.04317e-05 0.0129429)
(1.13139e-06 -1.12615e-05 0.0129635)
(-1.13139e-06 -1.12615e-05 0.0129635)
(-3.15622e-06 -1.04316e-05 0.0129429)
(-4.53282e-06 -8.83639e-06 0.0128865)
(-4.75538e-06 -6.84085e-06 0.0127537)
(-4.41882e-06 -4.41882e-06 0.0124713)
(1.0458e-06 1.0458e-06 0.0124667)
(1.23289e-06 1.82497e-06 0.0127497)
(1.26824e-06 2.47966e-06 0.0128836)
(9.07732e-07 3.03091e-06 0.0129411)
(3.31795e-07 3.31708e-06 0.0129624)
(-3.3179e-07 3.31708e-06 0.0129624)
(-9.07729e-07 3.0309e-06 0.0129411)
(-1.26824e-06 2.47966e-06 0.0128836)
(-1.23289e-06 1.82497e-06 0.0127497)
(-1.0458e-06 1.0458e-06 0.0124667)
(1.82497e-06 1.23289e-06 0.0127497)
(2.19545e-06 2.19545e-06 0.0129364)
(2.11354e-06 3.03575e-06 0.0130012)
(1.50022e-06 3.67927e-06 0.0130227)
(5.41566e-07 4.02096e-06 0.0130291)
(-5.41563e-07 4.02095e-06 0.0130291)
(-1.50022e-06 3.67926e-06 0.0130227)
(-2.11354e-06 3.03575e-06 0.0130012)
(-2.19545e-06 2.19545e-06 0.0129364)
(-1.82496e-06 1.23289e-06 0.0127497)
(2.47966e-06 1.26824e-06 0.0128836)
(3.03575e-06 2.11354e-06 0.0130012)
(2.88383e-06 2.88384e-06 0.0130317)
(2.03915e-06 3.46369e-06 0.0130385)
(7.33773e-07 3.77191e-06 0.0130397)
(-7.33774e-07 3.77191e-06 0.0130397)
(-2.03915e-06 3.46369e-06 0.0130385)
(-2.88383e-06 2.88383e-06 0.0130317)
(-3.03575e-06 2.11354e-06 0.0130012)
(-2.47965e-06 1.26824e-06 0.0128836)
(3.03091e-06 9.0773e-07 0.0129411)
(3.67927e-06 1.50022e-06 0.0130227)
(3.46369e-06 2.03915e-06 0.0130385)
(2.44101e-06 2.44101e-06 0.0130403)
(8.77005e-07 2.65414e-06 0.0130399)
(-8.77006e-07 2.65414e-06 0.0130399)
(-2.44101e-06 2.44101e-06 0.0130403)
(-3.46368e-06 2.03915e-06 0.0130385)
(-3.67926e-06 1.50022e-06 0.0130227)
(-3.0309e-06 9.07733e-07 0.0129411)
(3.31708e-06 3.31795e-07 0.0129624)
(4.02096e-06 5.41567e-07 0.0130291)
(3.77191e-06 7.33773e-07 0.0130397)
(2.65414e-06 8.77006e-07 0.0130399)
(9.52947e-07 9.52948e-07 0.0130392)
(-9.52945e-07 9.52949e-07 0.0130392)
(-2.65413e-06 8.77009e-07 0.0130399)
(-3.7719e-06 7.33776e-07 0.0130397)
(-4.02095e-06 5.41567e-07 0.0130291)
(-3.31707e-06 3.31796e-07 0.0129624)
(3.31708e-06 -3.3179e-07 0.0129624)
(4.02095e-06 -5.41562e-07 0.0130291)
(3.77191e-06 -7.33771e-07 0.0130397)
(2.65414e-06 -8.77004e-07 0.0130399)
(9.52948e-07 -9.52944e-07 0.0130392)
(-9.52944e-07 -9.52943e-07 0.0130392)
(-2.65413e-06 -8.77002e-07 0.0130399)
(-3.7719e-06 -7.33768e-07 0.0130397)
(-4.02095e-06 -5.41561e-07 0.0130291)
(-3.31707e-06 -3.31794e-07 0.0129624)
(3.0309e-06 -9.07729e-07 0.0129411)
(3.67927e-06 -1.50022e-06 0.0130227)
(3.46369e-06 -2.03914e-06 0.0130385)
(2.44101e-06 -2.44101e-06 0.0130403)
(8.77007e-07 -2.65413e-06 0.0130399)
(-8.77003e-07 -2.65413e-06 0.0130399)
(-2.441e-06 -2.441e-06 0.0130403)
(-3.46368e-06 -2.03914e-06 0.0130385)
(-3.67926e-06 -1.50022e-06 0.0130227)
(-3.0309e-06 -9.07733e-07 0.0129411)
(2.47966e-06 -1.26824e-06 0.0128836)
(3.03575e-06 -2.11354e-06 0.0130012)
(2.88383e-06 -2.88383e-06 0.0130317)
(2.03915e-06 -3.46368e-06 0.0130385)
(7.33775e-07 -3.7719e-06 0.0130397)
(-7.3377e-07 -3.77191e-06 0.0130397)
(-2.03914e-06 -3.46368e-06 0.0130385)
(-2.88383e-06 -2.88383e-06 0.0130317)
(-3.03575e-06 -2.11354e-06 0.0130012)
(-2.47965e-06 -1.26824e-06 0.0128836)
(1.82496e-06 -1.23289e-06 0.0127497)
(2.19545e-06 -2.19546e-06 0.0129364)
(2.11354e-06 -3.03575e-06 0.0130012)
(1.50022e-06 -3.67926e-06 0.0130227)
(5.41565e-07 -4.02095e-06 0.0130291)
(-5.41564e-07 -4.02095e-06 0.0130291)
(-1.50021e-06 -3.67926e-06 0.0130227)
(-2.11353e-06 -3.03574e-06 0.0130012)
(-2.19545e-06 -2.19545e-06 0.0129364)
(-1.82496e-06 -1.23289e-06 0.0127497)
(1.04579e-06 -1.0458e-06 0.0124667)
(1.23289e-06 -1.82496e-06 0.0127497)
(1.26825e-06 -2.47965e-06 0.0128836)
(9.07734e-07 -3.0309e-06 0.0129411)
(3.31791e-07 -3.31707e-06 0.0129624)
(-3.31791e-07 -3.31707e-06 0.0129624)