/*--------------------------------*- C++ -*----------------------------------*\
| =========                 |                                                 |
| \\      /  F ield         | OpenFOAM: The Open Source CFD Toolbox           |
|  \\    /   O peration     | Version:  2412                                  |
|   \\  /    A nd           | Website:  www.openfoam.com                      |
|    \\/     M anipulation  |                                                 |
\*---------------------------------------------------------------------------*/
FoamFile
{
    version     2.0;
    format      ascii;
    arch        "LSB;label=32;scalar=64";
    class       surfaceScalarField;
    location    "0.5";
    object      phi;
}
// * * * * * * * * * * * * * * * * * * * * * * * * * * * * * * * * * * * * * //

dimensions      [0 3 -1 0 0 0 0];

oriented        oriented;

internalField   nonuniform List<scalar> 
43700
(
3.50554e-05
3.50554e-05
5.67904e-05
-3.99497e-05
-3.99497e-05
2.79896e-05
3.49061e-05
6.361e-05
-4.0512e-05
1.93663e-05
3.43001e-05
6.84081e-05
-4.01419e-05
9.87197e-06
3.37124e-05
7.14682e-05
-3.97149e-05
-2.69639e-12
3.33716e-05
7.29484e-05
-3.94552e-05
-9.87197e-06
3.33716e-05
7.29484e-05
-3.94552e-05
-1.93664e-05
3.37124e-05
7.14682e-05
-3.97149e-05
-2.79896e-05
3.43001e-05
6.84081e-05
-4.01419e-05
-3.50554e-05
3.49061e-05
6.361e-05
-4.0512e-05
3.50554e-05
5.67904e-05
-3.99497e-05
-3.99496e-05
3.49061e-05
2.79896e-05
6.361e-05
-4.0512e-05
2.72463e-05
2.72463e-05
6.99038e-05
1.8527e-05
2.64289e-05
7.39595e-05
9.3411e-06
2.57681e-05
7.63798e-05
-1.09464e-12
2.54048e-05
7.75051e-05
-9.34111e-06
2.54048e-05
7.75051e-05
-1.8527e-05
2.57681e-05
7.63798e-05
-2.72463e-05
2.64289e-05
7.39595e-05
-3.49061e-05
2.72463e-05
6.99039e-05
2.79896e-05
6.361e-05
-4.0512e-05
3.43001e-05
1.93663e-05
6.84081e-05
-4.01419e-05
2.64289e-05
1.8527e-05
7.39595e-05
1.77621e-05
1.77621e-05
7.7321e-05
8.88607e-06
1.71912e-05
7.92091e-05
-1.91462e-12
1.68879e-05
8.00508e-05
-8.88608e-06
1.68879e-05
8.00508e-05
-1.77621e-05
1.71912e-05
7.92091e-05
-2.64289e-05
1.77621e-05
7.7321e-05
-3.43001e-05
1.8527e-05
7.39595e-05
1.93664e-05
6.84081e-05
-4.01419e-05
3.37123e-05
9.87196e-06
7.14682e-05
-3.97149e-05
2.57681e-05
9.3411e-06
7.63798e-05
1.71912e-05
8.88607e-06
7.92091e-05
8.55751e-06
8.55751e-06
8.07177e-05
-2.37225e-12
8.38583e-06
8.13638e-05
-8.55752e-06
8.38583e-06
8.13638e-05
-1.71912e-05
8.55751e-06
8.07177e-05
-2.57681e-05
8.88607e-06
7.92091e-05
-3.37123e-05
9.3411e-06
7.63798e-05
9.87197e-06
7.14682e-05
-3.97149e-05
3.33716e-05
-4.32765e-12
7.29484e-05
-3.94552e-05
2.54048e-05
-3.7069e-12
7.75051e-05
1.68879e-05
-2.94324e-12
8.00508e-05
8.38583e-06
-4.11246e-12
8.13638e-05
-8.15356e-13
-4.45672e-12
8.19109e-05
-8.38583e-06
-2.25727e-12
8.19109e-05
-1.68879e-05
-7.23265e-13
8.13638e-05
-2.54048e-05
-2.652e-13
8.00508e-05
-3.33716e-05
-1.45769e-12
7.75051e-05
-1.15252e-12
7.29484e-05
-3.94552e-05
3.33716e-05
-9.87197e-06
7.29484e-05
-3.94552e-05
2.54048e-05
-9.34111e-06
7.75051e-05
1.68879e-05
-8.88608e-06
8.00508e-05
8.38583e-06
-8.55752e-06
8.13638e-05
1.40287e-12
-8.38584e-06
8.19109e-05
-8.38583e-06
-8.38584e-06
8.19109e-05
-1.68879e-05
-8.55752e-06
8.13638e-05
-2.54048e-05
-8.88607e-06
8.00508e-05
-3.33716e-05
-9.3411e-06
7.75051e-05
-9.87197e-06
7.29484e-05
-3.94552e-05
3.37124e-05
-1.93664e-05
7.14682e-05
-3.97149e-05
2.57681e-05
-1.8527e-05
7.63798e-05
1.71912e-05
-1.77621e-05
7.92091e-05
8.55751e-06
-1.71912e-05
8.07177e-05
1.7352e-12
-1.68879e-05
8.13638e-05
-8.55751e-06
-1.68879e-05
8.13638e-05
-1.71912e-05
-1.71912e-05
8.07177e-05
-2.57681e-05
-1.77621e-05
7.92091e-05
-3.37123e-05
-1.8527e-05
7.63798e-05
-1.93664e-05
7.14682e-05
-3.97149e-05
3.43001e-05
-2.79896e-05
6.84081e-05
-4.01419e-05
2.64289e-05
-2.72463e-05
7.39595e-05
1.77621e-05
-2.64289e-05
7.7321e-05
8.88607e-06
-2.57681e-05
7.92091e-05
-5.17945e-13
-2.54048e-05
8.00508e-05
-8.88607e-06
-2.54048e-05
8.00508e-05
-1.77621e-05
-2.57681e-05
7.92091e-05
-2.64289e-05
-2.64289e-05
7.7321e-05
-3.43001e-05
-2.72463e-05
7.39595e-05
-2.79896e-05
6.84081e-05
-4.01419e-05
3.49061e-05
-3.50554e-05
6.361e-05
-4.0512e-05
2.72463e-05
-3.49061e-05
6.99038e-05
1.8527e-05
-3.43001e-05
7.39595e-05
9.3411e-06
-3.37124e-05
7.63798e-05
-1.76862e-12
-3.33716e-05
7.75051e-05
-9.3411e-06
-3.33716e-05
7.75051e-05
-1.8527e-05
-3.37124e-05
7.63798e-05
-2.72463e-05
-3.43001e-05
7.39595e-05
-3.49061e-05
-3.49061e-05
6.99038e-05
-3.50554e-05
6.361e-05
-4.0512e-05
3.50554e-05
5.67904e-05
-3.99497e-05
-3.99497e-05
2.79896e-05
6.361e-05
-4.0512e-05
1.93664e-05
6.84081e-05
-4.01419e-05
9.87197e-06
7.14682e-05
-3.97149e-05
-8.63966e-13
7.29484e-05
-3.94552e-05
-9.87197e-06
7.29484e-05
-3.94552e-05
-1.93664e-05
7.14682e-05
-3.97149e-05
-2.79896e-05
6.84081e-05
-4.01419e-05
-3.50554e-05
6.361e-05
-4.0512e-05
5.67904e-05
-3.99497e-05
-3.99497e-05
1.98762e-05
1.98762e-05
5.71029e-05
-2.00325e-05
-2.00325e-05
1.73632e-05
2.21649e-05
6.61817e-05
-2.22236e-05
1.27974e-05
2.37475e-05
7.30466e-05
-2.38201e-05
6.77529e-06
2.47451e-05
7.76042e-05
-2.48591e-05
-9.64667e-13
2.52218e-05
7.98656e-05
-2.53637e-05
-6.77529e-06
2.52218e-05
7.98656e-05
-2.53637e-05
-1.27974e-05
2.47451e-05
7.76042e-05
-2.48591e-05
-1.73632e-05
2.37475e-05
7.30466e-05
-2.38201e-05
-1.98762e-05
2.21649e-05
6.61817e-05
-2.22236e-05
1.98762e-05
5.71029e-05
-2.00325e-05
-2.00325e-05
2.21649e-05
1.73632e-05
6.61817e-05
-2.22236e-05
1.92434e-05
1.92434e-05
7.57469e-05
1.40667e-05
2.05089e-05
8.23748e-05
7.40169e-06
2.12803e-05
8.65096e-05
-5.38003e-13
2.16425e-05
8.84861e-05
-7.40169e-06
2.16425e-05
8.84861e-05
-1.40668e-05
2.12803e-05
8.65096e-05
-1.92434e-05
2.05089e-05
8.23748e-05
-2.21649e-05
1.92434e-05
7.57469e-05
1.73632e-05
6.61817e-05
-2.22236e-05
2.37475e-05
1.27974e-05
7.30466e-05
-2.38201e-05
2.05089e-05
1.40667e-05
8.23748e-05
1.49074e-05
1.49074e-05
8.85238e-05
7.81118e-06
1.54058e-05
9.21799e-05
-3.08396e-13
1.56361e-05
9.38685e-05
-7.81118e-06
1.56361e-05
9.38685e-05
-1.49074e-05
1.54058e-05
9.21799e-05
-2.05089e-05
1.49074e-05
8.85238e-05
-2.37475e-05
1.40667e-05
8.23748e-05
1.27974e-05
7.30466e-05
-2.38201e-05
2.47451e-05
6.77529e-06
7.76042e-05
-2.48591e-05
2.12803e-05
7.40169e-06
8.65096e-05
1.54058e-05
7.81118e-06
9.21799e-05
8.04889e-06
8.04889e-06
9.54316e-05
-4.9821e-14
8.15734e-06
9.68914e-05
-8.04889e-06
8.15734e-06
9.68914e-05
-1.54058e-05
8.04889e-06
9.54316e-05
-2.12803e-05
7.81118e-06
9.21799e-05
-2.47451e-05
7.40169e-06
8.65096e-05
6.77529e-06
7.76042e-05
-2.48591e-05
2.52218e-05
-4.84724e-12
7.98656e-05
-2.53637e-05
2.16425e-05
-5.05255e-12
8.84861e-05
1.56361e-05
-4.15193e-12
9.38685e-05
8.15735e-06
-2.81034e-12
9.68914e-05
-2.74498e-13
-2.41088e-12
9.82256e-05
-8.15735e-06
-3.01177e-12
9.82256e-05
-1.56361e-05
-3.05417e-12
9.68914e-05
-2.16425e-05
-1.54065e-12
9.38685e-05
-2.52218e-05
-2.58132e-13
8.84861e-05
7.45649e-13
7.98656e-05
-2.53637e-05
2.52218e-05
-6.7753e-06
7.98656e-05
-2.53637e-05
2.16425e-05
-7.4017e-06
8.84861e-05
1.56361e-05
-7.81119e-06
9.38685e-05
8.15735e-06
-8.0489e-06
9.68914e-05
-7.85996e-13
-8.15735e-06
9.82256e-05
-8.15735e-06
-8.15735e-06
9.82256e-05
-1.56361e-05
-8.04889e-06
9.68914e-05
-2.16425e-05
-7.81118e-06
9.38685e-05
-2.52218e-05
-7.40169e-06
8.84861e-05
-6.77529e-06
7.98656e-05
-2.53637e-05
2.47451e-05
-1.27974e-05
7.76042e-05
-2.48591e-05
2.12803e-05
-1.40668e-05
8.65096e-05
1.54058e-05
-1.49074e-05
9.21799e-05
8.04889e-06
-1.54058e-05
9.54316e-05
6.45146e-14
-1.56361e-05
9.68914e-05
-8.04889e-06
-1.56361e-05
9.68914e-05
-1.54058e-05
-1.54058e-05
9.54316e-05
-2.12803e-05
-1.49074e-05
9.21799e-05
-2.47451e-05
-1.40668e-05
8.65096e-05
-1.27974e-05
7.76042e-05
-2.48591e-05
2.37475e-05
-1.73632e-05
7.30466e-05
-2.38201e-05
2.05089e-05
-1.92434e-05
8.23748e-05
1.49074e-05
-2.05089e-05
8.85238e-05
7.81118e-06
-2.12803e-05
9.21799e-05
1.46726e-12
-2.16425e-05
9.38685e-05
-7.81118e-06
-2.16425e-05
9.38685e-05
-1.49074e-05
-2.12803e-05
9.21799e-05
-2.05089e-05
-2.05089e-05
8.85238e-05
-2.37475e-05
-1.92434e-05
8.23748e-05
-1.73632e-05
7.30466e-05
-2.38201e-05
2.21649e-05
-1.98762e-05
6.61817e-05
-2.22236e-05
1.92434e-05
-2.21649e-05
7.57469e-05
1.40667e-05
-2.37475e-05
8.23748e-05
7.40169e-06
-2.47451e-05
8.65096e-05
1.6185e-12
-2.52218e-05
8.84861e-05
-7.40169e-06
-2.52218e-05
8.84861e-05
-1.40667e-05
-2.47451e-05
8.65096e-05
-1.92434e-05
-2.37475e-05
8.23748e-05
-2.21649e-05
-2.21649e-05
7.57469e-05
-1.98762e-05
6.61817e-05
-2.22236e-05
1.98762e-05
5.71029e-05
-2.00325e-05
-2.00325e-05
1.73632e-05
6.61817e-05
-2.22236e-05
1.27974e-05
7.30466e-05
-2.38201e-05
6.77529e-06
7.76042e-05
-2.48591e-05
1.91901e-12
7.98656e-05
-2.53637e-05
-6.77529e-06
7.98656e-05
-2.53637e-05
-1.27974e-05
7.76042e-05
-2.48591e-05
-1.73632e-05
7.30466e-05
-2.38201e-05
-1.98762e-05
6.61817e-05
-2.22236e-05
5.71029e-05
-2.00325e-05
-2.00325e-05
1.18522e-05
1.18522e-05
5.51369e-05
-1.08692e-05
-1.08692e-05
1.09851e-05
1.39502e-05
6.57001e-05
-1.26014e-05
8.42716e-06
1.54856e-05
7.40336e-05
-1.39146e-05
4.56587e-06
1.65224e-05
7.97608e-05
-1.48177e-05
-1.94944e-13
1.70437e-05
8.26632e-05
-1.52754e-05
-4.56587e-06
1.70437e-05
8.26632e-05
-1.52754e-05
-8.42716e-06
1.65224e-05
7.97608e-05
-1.48177e-05
-1.09851e-05
1.54856e-05
7.40336e-05
-1.39146e-05
-1.18522e-05
1.39502e-05
6.57001e-05
-1.26014e-05
1.18522e-05
5.51369e-05
-1.08692e-05
-1.08692e-05
1.39502e-05
1.09851e-05
6.57001e-05
-1.26014e-05
1.29802e-05
1.29802e-05
7.76868e-05
9.93513e-06
1.44213e-05
8.64842e-05
5.36756e-06
1.53679e-05
9.22317e-05
2.13512e-14
1.58368e-05
9.50605e-05
-5.36756e-06
1.58368e-05
9.50605e-05
-9.93513e-06
1.53679e-05
9.22317e-05
-1.29802e-05
1.44213e-05
8.64842e-05
-1.39502e-05
1.29802e-05
7.76868e-05
1.09851e-05
6.57001e-05
-1.26014e-05
1.54856e-05
8.42715e-06
7.40336e-05
-1.39146e-05
1.44213e-05
9.93513e-06
8.64842e-05
1.10262e-05
1.10262e-05
9.53139e-05
5.9491e-06
1.17311e-05
0.000100894
7.67733e-14
1.20766e-05
0.000103578
-5.9491e-06
1.20766e-05
0.000103578
-1.10262e-05
1.17311e-05
0.000100894
-1.44213e-05
1.10262e-05
9.53139e-05
-1.54856e-05
9.93513e-06
8.64842e-05
8.42716e-06
7.40336e-05
-1.39146e-05
1.65224e-05
4.56587e-06
7.97608e-05
-1.48177e-05
1.53679e-05
5.36756e-06
9.22317e-05
1.17311e-05
5.9491e-06
0.000100894
6.32131e-06
6.32131e-06
0.000106251
1.07468e-12
6.50261e-06
0.000108787
-6.32131e-06
6.50261e-06
0.000108787
-1.17311e-05
6.32131e-06
0.000106251
-1.53679e-05
5.9491e-06
0.000100894
-1.65224e-05
5.36756e-06
9.22317e-05
4.56587e-06
7.97608e-05
-1.48177e-05
1.70437e-05
-3.23069e-12
8.26632e-05
-1.52754e-05
1.58368e-05
-2.03526e-12
9.50605e-05
1.20766e-05
-1.36308e-12
0.000103578
6.50261e-06
-1.53572e-12
0.000108787
1.2237e-12
-2.19454e-12
0.000111231
-6.50261e-06
-2.64074e-12
0.000111231
-1.20766e-05
-2.12578e-12
0.000108787
-1.58368e-05
-7.57257e-13
0.000103578
-1.70437e-05
6.31766e-13
9.50605e-05
1.07009e-12
8.26632e-05
-1.52754e-05
1.70437e-05
-4.56587e-06
8.26632e-05
-1.52754e-05
1.58368e-05
-5.36756e-06
9.50605e-05
1.20766e-05
-5.9491e-06
0.000103578
6.50261e-06
-6.32131e-06
0.000108787
7.37499e-13
-6.50261e-06
0.000111231
-6.50261e-06
-6.50261e-06
0.000111231
-1.20766e-05
-6.32131e-06
0.000108787
-1.58368e-05
-5.9491e-06
0.000103578
-1.70437e-05
-5.36756e-06
9.50605e-05
-4.56587e-06
8.26632e-05
-1.52754e-05
1.65224e-05
-8.42716e-06
7.97608e-05
-1.48177e-05
1.53679e-05
-9.93514e-06
9.22317e-05
1.17311e-05
-1.10262e-05
0.000100894
6.32131e-06
-1.17311e-05
0.000106251
4.97794e-13
-1.20766e-05
0.000108787
-6.32131e-06
-1.20766e-05
0.000108787
-1.17311e-05
-1.17311e-05
0.000106251
-1.53679e-05
-1.10262e-05
0.000100894
-1.65224e-05
-9.93513e-06
9.22317e-05
-8.42716e-06
7.97608e-05
-1.48177e-05
1.54856e-05
-1.09851e-05
7.40336e-05
-1.39146e-05
1.44213e-05
-1.29802e-05
8.64842e-05
1.10262e-05
-1.44213e-05
9.53139e-05
5.9491e-06
-1.53679e-05
0.000100894
7.25726e-13
-1.58368e-05
0.000103578
-5.9491e-06
-1.58368e-05
0.000103578
-1.10262e-05
-1.53679e-05
0.000100894
-1.44213e-05
-1.44213e-05
9.53139e-05
-1.54856e-05
-1.29802e-05
8.64842e-05
-1.09851e-05
7.40336e-05
-1.39146e-05
1.39502e-05
-1.18522e-05
6.57001e-05
-1.26014e-05
1.29802e-05
-1.39502e-05
7.76868e-05
9.93513e-06
-1.54856e-05
8.64842e-05
5.36756e-06
-1.65224e-05
9.22317e-05
1.61765e-12
-1.70437e-05
9.50605e-05
-5.36756e-06
-1.70437e-05
9.50605e-05
-9.93513e-06
-1.65224e-05
9.22317e-05
-1.29802e-05
-1.54856e-05
8.64842e-05
-1.39502e-05
-1.39502e-05
7.76868e-05
-1.18522e-05
6.57001e-05
-1.26014e-05
1.18522e-05
5.51369e-05
-1.08692e-05
-1.08692e-05
1.09851e-05
6.57001e-05
-1.26014e-05
8.42716e-06
7.40336e-05
-1.39146e-05
4.56587e-06
7.97608e-05
-1.48177e-05
1.67192e-12
8.26632e-05
-1.52754e-05
-4.56587e-06
8.26632e-05
-1.52754e-05
-8.42715e-06
7.97608e-05
-1.48177e-05
-1.09851e-05
7.40336e-05
-1.39146e-05
-1.18522e-05
6.57001e-05
-1.26014e-05
5.51369e-05
-1.08692e-05
-1.08692e-05
5.85838e-06
5.85838e-06
5.3741e-05
-5.16041e-06
-5.16041e-06
5.63822e-06
7.24205e-06
6.48777e-05
-6.19951e-06
4.44884e-06
8.34769e-06
7.39322e-05
-7.05695e-06
2.4527e-06
9.13427e-06
8.02948e-05
-7.67206e-06
4.8015e-13
9.54161e-06
8.35654e-05
-7.9911e-06
-2.4527e-06
9.54161e-06
8.35654e-05
-7.9911e-06
-4.44884e-06
9.13427e-06
8.02948e-05
-7.67206e-06
-5.63822e-06
8.34769e-06
7.39322e-05
-7.05695e-06
-5.85838e-06
7.24205e-06
6.48777e-05
-6.19951e-06
5.85838e-06
5.3741e-05
-5.16041e-06
-5.16041e-06
7.24205e-06
5.63822e-06
6.48777e-05
-6.19951e-06
7.05557e-06
7.05557e-06
7.80597e-05
5.5828e-06
8.17671e-06
8.81279e-05
3.0774e-06
8.95779e-06
9.49136e-05
1.46761e-12
9.35826e-06
9.83213e-05
-3.0774e-06
9.35826e-06
9.83213e-05
-5.5828e-06
8.95779e-06
9.49136e-05
-7.05557e-06
8.17671e-06
8.81279e-05
-7.24205e-06
7.05557e-06
7.80597e-05
5.63822e-06
6.48777e-05
-6.19951e-06
8.34769e-06
4.44884e-06
7.39322e-05
-7.05695e-06
8.17671e-06
5.5828e-06
8.81279e-05
6.48255e-06
6.48254e-06
9.87023e-05
3.5746e-06
7.10176e-06
0.000105658
1.82872e-12
7.41692e-06
0.000109094
-3.5746e-06
7.41692e-06
0.000109094
-6.48255e-06
7.10176e-06
0.000105658
-8.17671e-06
6.48255e-06
9.87023e-05
-8.34769e-06
5.5828e-06
8.81279e-05
4.44885e-06
7.39322e-05
-7.05695e-06
9.13427e-06
2.45269e-06
8.02948e-05
-7.67206e-06
8.95779e-06
3.0774e-06
9.49136e-05
7.10176e-06
3.5746e-06
0.000105658
3.91464e-06
3.91464e-06
0.000112625
2.01427e-12
4.08698e-06
0.000116031
-3.91464e-06
4.08698e-06
0.000116031
-7.10176e-06
3.91464e-06
0.000112625
-8.95779e-06
3.5746e-06
0.000105658
-9.13427e-06
3.0774e-06
9.49136e-05
2.4527e-06
8.02948e-05
-7.67206e-06
9.54161e-06
-1.04222e-12
8.35654e-05
-7.9911e-06
9.35826e-06
-1.13007e-13
9.83213e-05
7.41692e-06
4.21468e-13
0.000109094
4.08698e-06
-3.32438e-13
0.000116031
2.26539e-12
-9.29103e-13
0.000119405
-4.08698e-06
-1.21745e-12
0.000119405
-7.41692e-06
-1.07891e-12
0.000116031
-9.35826e-06
-3.65166e-13
0.000109094
-9.54161e-06
7.76037e-13
9.83213e-05
1.09608e-12
8.35654e-05
-7.9911e-06
9.54162e-06
-2.4527e-06
8.35654e-05
-7.9911e-06
9.35826e-06
-3.0774e-06
9.83213e-05
7.41692e-06
-3.5746e-06
0.000109094
4.08698e-06
-3.91464e-06
0.000116031
1.93342e-12
-4.08698e-06
0.000119405
-4.08698e-06
-4.08698e-06
0.000119405
-7.41691e-06
-3.91464e-06
0.000116031
-9.35826e-06
-3.5746e-06
0.000109094
-9.54161e-06
-3.0774e-06
9.83213e-05
-2.45269e-06
8.35654e-05
-7.9911e-06
9.13427e-06
-4.44885e-06
8.02948e-05
-7.67206e-06
8.95779e-06
-5.5828e-06
9.49136e-05
7.10176e-06
-6.48254e-06
0.000105658
3.91464e-06
-7.10176e-06
0.000112625
1.72567e-12
-7.41692e-06
0.000116031
-3.91464e-06
-7.41692e-06
0.000116031
-7.10176e-06
-7.10176e-06
0.000112625
-8.95779e-06
-6.48255e-06
0.000105658
-9.13427e-06
-5.5828e-06
9.49136e-05
-4.44884e-06
8.02948e-05
-7.67206e-06
8.3477e-06
-5.63822e-06
7.39322e-05
-7.05695e-06
8.17671e-06
-7.05557e-06
8.81279e-05
6.48254e-06
-8.17671e-06
9.87023e-05
3.5746e-06
-8.95779e-06
0.000105658
1.36903e-12
-9.35826e-06
0.000109094
-3.5746e-06
-9.35826e-06
0.000109094
-6.48254e-06
-8.95779e-06
0.000105658
-8.17671e-06
-8.17671e-06
9.87023e-05
-8.34769e-06
-7.05557e-06
8.81279e-05
-5.63822e-06
7.39322e-05
-7.05694e-06
7.24205e-06
-5.85838e-06
6.48777e-05
-6.19952e-06
7.05557e-06
-7.24205e-06
7.80597e-05
5.5828e-06
-8.3477e-06
8.81279e-05
3.0774e-06
-9.13427e-06
9.49136e-05
1.44055e-12
-9.54161e-06
9.83213e-05
-3.0774e-06
-9.54161e-06
9.83213e-05
-5.5828e-06
-9.13427e-06
9.49136e-05
-7.05556e-06
-8.34769e-06
8.81279e-05
-7.24205e-06
-7.24205e-06
7.80597e-05
-5.85838e-06
6.48777e-05
-6.19951e-06
5.85838e-06
5.3741e-05
-5.16041e-06
-5.16041e-06
5.63822e-06
6.48777e-05
-6.19951e-06
4.44885e-06
7.39322e-05
-7.05695e-06
2.4527e-06
8.02948e-05
-7.67206e-06
1.56913e-12
8.35654e-05
-7.9911e-06
-2.45269e-06
8.35654e-05
-7.9911e-06
-4.44884e-06
8.02948e-05
-7.67206e-06
-5.63821e-06
7.39322e-05
-7.05694e-06
-5.85838e-06
6.48777e-05
-6.19951e-06
5.3741e-05
-5.16041e-06
-5.16041e-06
3.13766e-06
3.13766e-06
5.28085e-05
-2.6714e-06
-2.67139e-06
3.08995e-06
3.94009e-06
6.42305e-05
-3.24517e-06
2.47979e-06
4.60195e-06
7.36666e-05
-3.72623e-06
1.3813e-06
5.08601e-06
8.03851e-05
-4.07785e-06
7.03789e-13
5.34119e-06
8.38681e-05
-4.26265e-06
-1.3813e-06
5.34119e-06
8.38681e-05
-4.26265e-06
-2.47978e-06
5.08601e-06
8.03851e-05
-4.07785e-06
-3.08995e-06
4.60195e-06
7.36666e-05
-3.72623e-06
-3.13765e-06
3.94009e-06
6.42305e-05
-3.24517e-06
3.13766e-06
5.28085e-05
-2.67139e-06
-2.6714e-06
3.94009e-06
3.08995e-06
6.42305e-05
-3.24517e-06
3.94927e-06
3.94927e-06
7.80414e-05
3.19025e-06
4.65769e-06
8.88312e-05
1.78082e-06
5.16767e-06
9.62414e-05
1.53815e-12
5.43451e-06
0.000100009
-1.78082e-06
5.43451e-06
0.000100009
-3.19025e-06
5.16767e-06
9.62414e-05
-3.94927e-06
4.65769e-06
8.88312e-05
-3.94009e-06
3.94927e-06
7.80414e-05
3.08996e-06
6.42305e-05
-3.24517e-06
4.60195e-06
2.47979e-06
7.36666e-05
-3.72623e-06
4.65769e-06
3.19025e-06
8.88312e-05
3.78144e-06
3.78144e-06
0.000100455
2.11545e-06
4.20347e-06
0.000108288
2.11903e-12
4.42309e-06
0.000112221
-2.11545e-06
4.4231e-06
0.000112221
-3.78144e-06
4.20347e-06
0.000108288
-4.65769e-06
3.78144e-06
0.000100455
-4.60195e-06
3.19025e-06
8.88312e-05
2.47979e-06
7.36666e-05
-3.72623e-06
5.08601e-06
1.3813e-06
8.03851e-05
-4.07785e-06
5.16767e-06
1.78082e-06
9.62414e-05
4.20347e-06
2.11545e-06
0.000108288
2.35339e-06
2.35338e-06
0.000116326
2.81841e-12
2.47683e-06
0.000120331
-2.35338e-06
2.47684e-06
0.000120331
-4.20346e-06
2.35338e-06
0.000116326
-5.16767e-06
2.11545e-06
0.000108288
-5.08601e-06
1.78082e-06
9.62414e-05
1.3813e-06
8.03851e-05
-4.07785e-06
5.34119e-06
1.89223e-12
8.38681e-05
-4.26264e-06
5.43451e-06
3.07574e-12
0.000100009
4.4231e-06
2.98082e-12
0.000112221
2.47684e-06
1.25995e-12
0.000120331
4.0514e-12
5.55477e-14
0.000124358
-2.47683e-06
2.80198e-13
0.000124358
-4.42309e-06
8.54839e-13
0.000120331
-5.43451e-06
7.58796e-13
0.000112221
-5.34119e-06
6.5187e-13
0.000100009
1.34433e-12
8.38681e-05
-4.26264e-06
5.34119e-06
-1.3813e-06
8.38681e-05
-4.26265e-06
5.43451e-06
-1.78081e-06
0.000100009
4.42309e-06
-2.11545e-06
0.000112221
2.47684e-06
-2.35338e-06
0.000120331
4.22346e-12
-2.47683e-06
0.000124358
-2.47683e-06
-2.47683e-06
0.000124358
-4.42309e-06
-2.35338e-06
0.000120331
-5.43451e-06
-2.11545e-06
0.000112221
-5.34119e-06
-1.78082e-06
0.000100009
-1.3813e-06
8.38681e-05
-4.26264e-06
5.08601e-06
-2.47978e-06
8.03851e-05
-4.07785e-06
5.16767e-06
-3.19025e-06
9.62414e-05
4.20346e-06
-3.78144e-06
0.000108288
2.35338e-06
-4.20346e-06
0.000116326
3.27643e-12
-4.42309e-06
0.000120331
-2.35338e-06
-4.42309e-06
0.000120331
-4.20346e-06
-4.20346e-06
0.000116326
-5.16767e-06
-3.78144e-06
0.000108288
-5.086e-06
-3.19025e-06
9.62414e-05
-2.47978e-06
8.03851e-05
-4.07785e-06
4.60195e-06
-3.08995e-06
7.36666e-05
-3.72623e-06
4.65769e-06
-3.94927e-06
8.88312e-05
3.78144e-06
-4.65769e-06
0.000100455
2.11545e-06
-5.16767e-06
0.000108288
1.80388e-12
-5.43451e-06
0.000112221
-2.11545e-06
-5.43451e-06
0.000112221
-3.78144e-06
-5.16767e-06
0.000108288
-4.65769e-06
-4.65769e-06
0.000100455
-4.60195e-06
-3.94927e-06
8.88312e-05
-3.08995e-06
7.36666e-05
-3.72623e-06
3.94009e-06
-3.13765e-06
6.42305e-05
-3.24517e-06
3.94927e-06
-3.94009e-06
7.80414e-05
3.19025e-06
-4.60195e-06
8.88312e-05
1.78082e-06
-5.08601e-06
9.62414e-05
1.09603e-12
-5.34119e-06
0.000100009
-1.78081e-06
-5.34119e-06
0.000100009
-3.19024e-06
-5.086e-06
9.62414e-05
-3.94927e-06
-4.60195e-06
8.88312e-05
-3.94009e-06
-3.94009e-06
7.80414e-05
-3.13765e-06
6.42305e-05
-3.24517e-06
3.13765e-06
5.28085e-05
-2.67139e-06
-2.67139e-06
3.08995e-06
6.42305e-05
-3.24517e-06
2.47979e-06
7.36666e-05
-3.72623e-06
1.3813e-06
8.03851e-05
-4.07785e-06
1.4997e-12
8.38681e-05
-4.26264e-06
-1.3813e-06
8.38681e-05
-4.26264e-06
-2.47978e-06
8.03851e-05
-4.07785e-06
-3.08995e-06
7.36666e-05
-3.72623e-06
-3.13765e-06
6.42305e-05
-3.24517e-06
5.28085e-05
-2.6714e-06
-2.67139e-06
1.64166e-06
1.64166e-06
5.2289e-05
-1.38191e-06
-1.38191e-06
1.63975e-06
2.09453e-06
6.38333e-05
-1.69546e-06
1.33154e-06
2.4802e-06
7.34598e-05
-1.9652e-06
7.47439e-07
2.76794e-06
8.03662e-05
-2.16496e-06
1.62973e-12
2.92141e-06
8.39649e-05
-2.2707e-06
-7.47437e-07
2.92141e-06
8.39649e-05
-2.2707e-06
-1.33154e-06
2.76794e-06
8.03662e-05
-2.16496e-06
-1.63974e-06
2.4802e-06
7.34598e-05
-1.96521e-06
-1.64165e-06
2.09453e-06
6.38333e-05
-1.69546e-06
1.64166e-06
5.2289e-05
-1.38191e-06
-1.38191e-06
2.09453e-06
1.63975e-06
6.38333e-05
-1.69546e-06
2.13831e-06
2.13831e-06
7.79538e-05
1.75299e-06
2.56462e-06
8.91321e-05
9.87812e-07
2.87924e-06
9.68952e-05
2.3794e-12
3.0463e-06
0.000100872
-9.87808e-07
3.0463e-06
0.000100872
-1.75299e-06
2.87924e-06
9.68952e-05
-2.13831e-06
2.56462e-06
8.91321e-05
-2.09453e-06
2.13832e-06
7.79538e-05
1.63975e-06
6.38333e-05
-1.69546e-06
2.4802e-06
1.33154e-06
7.34598e-05
-1.9652e-06
2.56462e-06
1.75299e-06
8.91321e-05
2.11768e-06
2.11768e-06
0.000101349
1.19747e-06
2.38542e-06
0.000109702
2.97463e-12
2.52711e-06
0.000113937
-1.19747e-06
2.52711e-06
0.000113937
-2.11768e-06
2.38542e-06
0.000109702
-2.56462e-06
2.11768e-06
0.000101349
-2.4802e-06
1.75299e-06
8.91321e-05
1.33155e-06
7.34598e-05
-1.9652e-06
2.76794e-06
7.47441e-07
8.03662e-05
-2.16495e-06
2.87924e-06
9.87813e-07
9.68952e-05
2.38542e-06
1.19747e-06
0.000109702
1.35106e-06
1.35106e-06
0.000118394
3.63411e-12
1.43219e-06
0.000122777
-1.35106e-06
1.43219e-06
0.000122777
-2.38542e-06
1.35106e-06
0.000118394
-2.87924e-06
1.19747e-06
0.000109702
-2.76794e-06
9.87812e-07
9.68952e-05
7.47441e-07
8.03662e-05
-2.16495e-06
2.92141e-06
4.0615e-12
8.39649e-05
-2.2707e-06
3.04629e-06
5.32038e-12
0.000100872
2.5271e-06
4.73085e-12
0.000113937
1.43219e-06
3.37981e-12
0.000122777
4.01869e-12
2.48014e-12
0.000127223
-1.43219e-06
2.0549e-12
0.000127223
-2.5271e-06
1.94747e-12
0.000122777
-3.04629e-06
1.30949e-12
0.000113937
-2.92141e-06
9.65538e-13
0.000100872
1.92549e-12
8.39649e-05
-2.2707e-06
2.92141e-06
-7.47433e-07
8.39649e-05
-2.2707e-06
3.04629e-06
-9.87804e-07
0.000100872
2.5271e-06
-1.19746e-06
0.000113937
1.43219e-06
-1.35105e-06
0.000122777
3.5295e-12
-1.43218e-06
0.000127223
-1.43219e-06
-1.43219e-06
0.000127223
-2.5271e-06
-1.35106e-06
0.000122777
-3.04629e-06
-1.19747e-06
0.000113937
-2.9214e-06
-9.87808e-07
0.000100872
-7.47437e-07
8.39649e-05
-2.2707e-06
2.76794e-06
-1.33154e-06
8.03662e-05
-2.16495e-06
2.87923e-06
-1.75298e-06
9.68952e-05
2.38542e-06
-2.11767e-06
0.000109702
1.35106e-06
-2.38541e-06
0.000118394
2.58673e-12
-2.5271e-06
0.000122777
-1.35106e-06
-2.5271e-06
0.000122777
-2.38542e-06
-2.38541e-06
0.000118394
-2.87924e-06
-2.11768e-06
0.000109702
-2.76794e-06
-1.75299e-06
9.68952e-05
-1.33154e-06
8.03662e-05
-2.16495e-06
2.4802e-06
-1.63974e-06
7.34598e-05
-1.9652e-06
2.56462e-06
-2.13831e-06
8.91321e-05
2.11768e-06
-2.56462e-06
0.000101349
1.19747e-06
-2.87923e-06
0.000109702
1.54222e-12
-3.04629e-06
0.000113937
-1.19747e-06
-3.04629e-06
0.000113937
-2.11768e-06
-2.87923e-06
0.000109702
-2.56462e-06
-2.56462e-06
0.000101349
-2.4802e-06
-2.13831e-06
8.91321e-05
-1.63974e-06
7.34598e-05
-1.9652e-06
2.09453e-06
-1.64165e-06
6.38333e-05
-1.69546e-06
2.13831e-06
-2.09453e-06
7.79538e-05
1.75299e-06
-2.4802e-06
8.91321e-05
9.87808e-07
-2.76794e-06
9.68952e-05
5.04521e-13
-2.9214e-06
0.000100872
-9.87807e-07
-2.9214e-06
0.000100872
-1.75299e-06
-2.76793e-06
9.68952e-05
-2.13831e-06
-2.4802e-06
8.91321e-05
-2.09453e-06
-2.09452e-06
7.79538e-05
-1.64165e-06
6.38333e-05
-1.69546e-06
1.64165e-06
5.2289e-05
-1.38191e-06
-1.38191e-06
1.63974e-06
6.38333e-05
-1.69546e-06
1.33154e-06
7.34598e-05
-1.9652e-06
7.47438e-07
8.03662e-05
-2.16495e-06
-1.70862e-14
8.39649e-05
-2.27069e-06
-7.47435e-07
8.39649e-05
-2.27069e-06
-1.33154e-06
8.03662e-05
-2.16495e-06
-1.63974e-06
7.34598e-05
-1.9652e-06
-1.64166e-06
6.38333e-05
-1.69546e-06
5.2289e-05
-1.38191e-06
-1.38191e-06
9.09063e-07
9.09064e-07
5.19879e-05
-7.58537e-07
-7.58537e-07
9.14147e-07
1.16313e-06
6.3597e-05
-9.31954e-07
7.46516e-07
1.38217e-06
7.33271e-05
-1.0818e-06
4.206e-07
1.5474e-06
8.03382e-05
-1.19341e-06
2.8541e-12
1.63617e-06
8.4002e-05
-1.25274e-06
-4.20596e-07
1.63617e-06
8.4002e-05
-1.25274e-06
-7.46514e-07
1.5474e-06
8.03382e-05
-1.19341e-06
-9.14145e-07
1.38217e-06
7.33271e-05
-1.0818e-06
-9.09061e-07
1.16313e-06
6.3597e-05
-9.31954e-07
9.09065e-07
5.19879e-05
-7.58534e-07
-7.58538e-07
1.16313e-06
9.14149e-07
6.3597e-05
-9.31953e-07
1.19819e-06
1.19819e-06
7.78837e-05
9.89674e-07
1.44542e-06
8.92774e-05
5.60452e-07
1.63059e-06
9.72413e-05
3.2037e-12
1.72985e-06
0.000101338
-5.60448e-07
1.72985e-06
0.000101338
-9.89672e-07
1.63059e-06
9.72413e-05
-1.19818e-06
1.44542e-06
8.92774e-05
-1.16313e-06
1.19819e-06
7.78837e-05
9.14151e-07
6.3597e-05
-9.31951e-07
1.38216e-06
7.46519e-07
7.33271e-05
-1.0818e-06
1.44541e-06
9.89677e-07
8.92774e-05
1.20468e-06
1.20468e-06
0.00010183
6.85369e-07
1.36533e-06
0.000110487
3.28334e-12
1.45128e-06
0.000114901
-6.85364e-07
1.45129e-06
0.000114901
-1.20467e-06
1.36533e-06
0.000110487
-1.44541e-06
1.20468e-06
0.00010183
-1.38216e-06
9.89678e-07
8.92774e-05
7.46518e-07
7.33271e-05
-1.0818e-06
1.5474e-06
4.20603e-07
8.03382e-05
-1.19341e-06
1.63059e-06
5.60455e-07
9.72413e-05
1.36532e-06
6.85372e-07
0.000110487
7.7866e-07
7.78662e-07
0.000119568
3.63932e-12
8.28537e-07
0.000124178
-7.78654e-07
8.28537e-07
0.000124178
-1.36532e-06
7.78662e-07
0.000119568
-1.63059e-06
6.85371e-07
0.000110487
-1.5474e-06
5.60454e-07
9.72413e-05
4.20601e-07
8.03382e-05
-1.19341e-06
1.63617e-06
5.59028e-12
8.4002e-05
-1.25273e-06
1.72985e-06
6.22629e-12
0.000101338
1.45128e-06
5.93606e-12
0.000114901
8.28535e-07
5.34308e-12
0.000124178
3.57743e-12
4.27855e-12
0.00012888
-8.2853e-07
3.17536e-12
0.00012888
-1.45128e-06
3.08394e-12
0.000124178
-1.72985e-06
2.83607e-12
0.000114901
-1.63617e-06
2.46508e-12
0.000101338
2.8928e-12
8.4002e-05
-1.25273e-06
1.63617e-06
-4.20591e-07
8.4002e-05
-1.25273e-06
1.72985e-06
-5.60444e-07
0.000101338
1.45128e-06
-6.85361e-07
0.000114901
8.28534e-07
-7.78651e-07
0.000124178
2.44814e-12
-8.28528e-07
0.00012888
-8.2853e-07
-8.28529e-07
0.00012888
-1.45128e-06
-7.78655e-07
0.000124178
-1.72985e-06
-6.85365e-07
0.000114901
-1.63617e-06
-5.60448e-07
0.000101338
-4.20596e-07
8.4002e-05
-1.25273e-06
1.5474e-06
-7.46509e-07
8.03382e-05
-1.1934e-06
1.63059e-06
-9.89667e-07
9.72413e-05
1.36532e-06
-1.20467e-06
0.000110487
7.78657e-07
-1.36532e-06
0.000119568
8.36027e-13
-1.45128e-06
0.000124178
-7.78655e-07
-1.45128e-06
0.000124178
-1.36532e-06
-1.36532e-06
0.000119568
-1.63059e-06
-1.20467e-06
0.000110487
-1.5474e-06
-9.89671e-07
9.72413e-05
-7.46512e-07
8.03382e-05
-1.1934e-06
1.38216e-06
-9.14141e-07
7.33271e-05
-1.0818e-06
1.44541e-06
-1.19818e-06
8.92774e-05
1.20467e-06
-1.44541e-06
0.00010183
6.85366e-07
-1.63059e-06
0.000110487
-2.14398e-13
-1.72984e-06
0.000114901
-6.85366e-07
-1.72985e-06
0.000114901
-1.20467e-06
-1.63059e-06
0.000110487
-1.44541e-06
-1.44541e-06
0.00010183
-1.38216e-06
-1.19818e-06
8.92774e-05
-9.14143e-07
7.33271e-05
-1.0818e-06
1.16313e-06
-9.09058e-07
6.3597e-05
-9.31951e-07
1.19818e-06
-1.16312e-06
7.78837e-05
9.89673e-07
-1.38216e-06
8.92774e-05
5.60449e-07
-1.5474e-06
9.72413e-05
-8.38694e-13
-1.63616e-06
0.000101338
-5.60449e-07
-1.63617e-06
0.000101338
-9.89672e-07
-1.5474e-06
9.72413e-05
-1.19818e-06
-1.38216e-06
8.92774e-05
-1.16313e-06
-1.16312e-06
7.78837e-05
-9.0906e-07
6.3597e-05
-9.31952e-07
9.09061e-07
5.19879e-05
-7.58533e-07
-7.58535e-07
9.14145e-07
6.3597e-05
-9.31949e-07
7.46515e-07
7.33271e-05
-1.08179e-06
4.20597e-07
8.03382e-05
-1.1934e-06
-6.76745e-13
8.4002e-05
-1.25273e-06
-4.20597e-07
8.4002e-05
-1.25273e-06
-7.46513e-07
8.03382e-05
-1.1934e-06
-9.14146e-07
7.33271e-05
-1.08179e-06
-9.09061e-07
6.3597e-05
-9.31948e-07
5.19879e-05
-7.58537e-07
-7.58533e-07
5.05602e-07
5.05604e-07
5.18187e-05
-4.21012e-07
-4.21013e-07
5.10416e-07
6.49447e-07
6.34612e-05
-5.18369e-07
4.18343e-07
7.74708e-07
7.32476e-05
-6.03092e-07
2.36304e-07
8.69843e-07
8.03168e-05
-6.66423e-07
4.22359e-12
9.21164e-07
8.40173e-05
-7.00155e-07
-2.36296e-07
9.21163e-07
8.40173e-05
-7.00155e-07
-4.18338e-07
8.69842e-07
8.03168e-05
-6.66423e-07
-5.10411e-07
7.74706e-07
7.32476e-05
-6.03092e-07
-5.05599e-07
6.49445e-07
6.34612e-05
-5.18369e-07
5.05601e-07
5.18187e-05
-4.21009e-07
-4.21011e-07
6.49446e-07
5.10418e-07
6.34612e-05
-5.18368e-07
6.72619e-07
6.72621e-07
7.78374e-05
5.5827e-07
8.15595e-07
8.93508e-05
3.17202e-07
9.23701e-07
9.74285e-05
3.57899e-12
9.81989e-07
0.000101595
-3.17195e-07
9.81989e-07
0.000101595
-5.58264e-07
9.23699e-07
9.74285e-05
-6.72614e-07
8.15593e-07
8.93508e-05
-6.49442e-07
6.7262e-07
7.78374e-05
5.10416e-07
6.34612e-05
-5.18364e-07
7.74706e-07
4.18347e-07
7.32476e-05
-6.0309e-07
8.15593e-07
5.58274e-07
8.93508e-05
6.83801e-07
6.83804e-07
0.000102094
3.90602e-07
7.78675e-07
0.000110925
3.08708e-12
8.29806e-07
0.000115444
-3.90596e-07
8.29807e-07
0.000115444
-6.83795e-07
7.78675e-07
0.000110925
-8.15588e-07
6.83802e-07
0.000102094
-7.74702e-07
5.58271e-07
8.93508e-05
4.18344e-07
7.32476e-05
-6.03088e-07
8.69842e-07
2.36307e-07
8.03168e-05
-6.66422e-07
9.23697e-07
3.17206e-07
9.74285e-05
7.78672e-07
3.90605e-07
0.000110925
4.46115e-07
4.46118e-07
0.000120233
3.5315e-12
4.76035e-07
0.000124978
-4.4611e-07
4.76035e-07
0.000124978
-7.78668e-07