/*--------------------------------*- C++ -*----------------------------------*\
| =========                 |                                                 |
| \\      /  F ield         | OpenFOAM: The Open Source CFD Toolbox           |
|  \\    /   O peration     | Version:  2412                                  |
|   \\  /    A nd           | Website:  www.openfoam.com                      |
|    \\/     M anipulation  |                                                 |
\*---------------------------------------------------------------------------*/
FoamFile
{
    version     2.0;
    format      ascii;
    arch        "LSB;label=32;scalar=64";
    class       volVectorField;
    location    "0.5";
    object      U;
}
// * * * * * * * * * * * * * * * * * * * * * * * * * * * * * * * * * * * * * //

dimensions      [0 1 -1 0 0 0 0];

internalField   nonuniform List<vector> 
15000
(
(0.228908 0.228907 1.09642)
(0.185942 0.242203 1.11728)
(0.134987 0.248633 1.12521)
(0.0815406 0.251801 1.12745)
(0.0272525 0.25306 1.12771)
(-0.0272526 0.25306 1.12771)
(-0.0815406 0.251801 1.12745)
(-0.134987 0.248633 1.12521)
(-0.185942 0.242203 1.11728)
(-0.228907 0.228907 1.09642)
(0.242203 0.185942 1.11728)
(0.191435 0.191435 1.13034)
(0.135769 0.193538 1.13005)
(0.0807933 0.194086 1.12631)
(0.0268006 0.194068 1.12356)
(-0.0268006 0.194068 1.12356)
(-0.0807933 0.194086 1.12631)
(-0.135769 0.193538 1.13005)
(-0.191435 0.191435 1.13034)
(-0.242203 0.185942 1.11728)
(0.248633 0.134987 1.12521)
(0.193538 0.135769 1.13005)
(0.135542 0.135542 1.1239)
(0.0798357 0.13488 1.11643)
(0.0263312 0.134349 1.11191)
(-0.0263313 0.134349 1.11191)
(-0.0798357 0.13488 1.11643)
(-0.135542 0.135542 1.1239)
(-0.193538 0.135769 1.13005)
(-0.248633 0.134987 1.12521)
(0.251801 0.0815406 1.12745)
(0.194086 0.0807933 1.12631)
(0.13488 0.0798357 1.11643)
(0.0789166 0.0789165 1.10682)
(0.0259287 0.078347 1.10132)
(-0.0259287 0.078347 1.10132)
(-0.0789166 0.0789165 1.10682)
(-0.13488 0.0798357 1.11643)
(-0.194086 0.0807933 1.12631)
(-0.251801 0.0815406 1.12745)
(0.25306 0.0272525 1.12771)
(0.194068 0.0268006 1.12356)
(0.134349 0.0263312 1.11191)
(0.0783471 0.0259287 1.10132)
(0.0256933 0.0256933 1.09541)
(-0.0256933 0.0256933 1.09541)
(-0.0783471 0.0259287 1.10132)
(-0.134349 0.0263312 1.11191)
(-0.194068 0.0268006 1.12356)
(-0.25306 0.0272525 1.12771)
(0.25306 -0.0272526 1.12771)
(0.194068 -0.0268006 1.12356)
(0.134349 -0.0263313 1.11191)
(0.0783471 -0.0259287 1.10132)
(0.0256933 -0.0256933 1.09541)
(-0.0256933 -0.0256933 1.09541)
(-0.0783471 -0.0259287 1.10132)
(-0.134349 -0.0263313 1.11191)
(-0.194068 -0.0268006 1.12356)
(-0.25306 -0.0272526 1.12771)
(0.251801 -0.0815407 1.12745)
(0.194086 -0.0807933 1.12631)
(0.13488 -0.0798357 1.11643)
(0.0789165 -0.0789166 1.10682)
(0.0259287 -0.0783471 1.10132)
(-0.0259287 -0.0783471 1.10132)
(-0.0789165 -0.0789166 1.10682)
(-0.13488 -0.0798357 1.11643)
(-0.194086 -0.0807933 1.12631)
(-0.251801 -0.0815406 1.12745)
(0.248633 -0.134987 1.12521)
(0.193538 -0.135769 1.13005)
(0.135542 -0.135542 1.1239)
(0.0798357 -0.13488 1.11643)
(0.0263312 -0.134349 1.11191)
(-0.0263312 -0.134349 1.11191)
(-0.0798357 -0.13488 1.11643)
(-0.135542 -0.135542 1.1239)
(-0.193538 -0.135769 1.13005)
(-0.248633 -0.134987 1.12521)
(0.242203 -0.185942 1.11728)
(0.191435 -0.191435 1.13034)
(0.135769 -0.193538 1.13005)
(0.0807933 -0.194086 1.12631)
(0.0268006 -0.194068 1.12356)
(-0.0268006 -0.194068 1.12356)
(-0.0807933 -0.194086 1.12631)
(-0.135769 -0.193538 1.13005)
(-0.191435 -0.191435 1.13034)
(-0.242203 -0.185942 1.11728)
(0.228908 -0.228908 1.09642)
(0.185942 -0.242203 1.11728)
(0.134987 -0.248633 1.12521)
(0.0815406 -0.251801 1.12745)
(0.0272525 -0.25306 1.12771)
(-0.0272525 -0.25306 1.12771)
(-0.0815406 -0.251801 1.12745)
(-0.134987 -0.248633 1.12521)
(-0.185942 -0.242203 1.11728)
(-0.228907 -0.228908 1.09642)
(0.119433 0.119433 1.27601)
(0.105305 0.142195 1.33638)
(0.0822748 0.160323 1.37029)
(0.0523248 0.17285 1.3878)
(0.0179349 0.179205 1.39498)
(-0.0179349 0.179205 1.39498)
(-0.0523248 0.17285 1.3878)
(-0.0822748 0.160323 1.37029)
(-0.105305 0.142195 1.33638)
(-0.119433 0.119433 1.27601)
(0.142195 0.105305 1.33638)
(0.125602 0.125602 1.3917)
(0.0974159 0.141608 1.41407)
(0.0614424 0.152425 1.4211)
(0.0209592 0.157837 1.42242)
(-0.0209592 0.157837 1.42242)
(-0.0614424 0.152425 1.4211)
(-0.0974159 0.141608 1.41407)
(-0.125602 0.125602 1.3917)
(-0.142195 0.105305 1.33638)
(0.160323 0.0822748 1.37029)
(0.141608 0.0974159 1.41407)
(0.109224 0.109224 1.42562)
(0.0684584 0.117081 1.42434)
(0.023269 0.120977 1.42122)
(-0.023269 0.120977 1.42122)
(-0.0684584 0.117081 1.42434)
(-0.109224 0.109224 1.42562)
(-0.141608 0.0974159 1.41407)
(-0.160323 0.0822748 1.37029)
(0.17285 0.0523247 1.3878)
(0.152425 0.0614424 1.4211)
(0.117081 0.0684583 1.42434)
(0.0730789 0.0730789 1.41725)
(0.0247827 0.0753577 1.41115)
(-0.0247827 0.0753577 1.41115)
(-0.0730789 0.0730789 1.41725)
(-0.117081 0.0684584 1.42434)
(-0.152425 0.0614424 1.4211)
(-0.17285 0.0523248 1.3878)
(0.179205 0.0179349 1.39498)
(0.157837 0.0209592 1.42242)
(0.120977 0.023269 1.42122)
(0.0753577 0.0247827 1.41115)
(0.0255273 0.0255273 1.40355)
(-0.0255273 0.0255273 1.40355)
(-0.0753577 0.0247827 1.41115)
(-0.120977 0.023269 1.42122)
(-0.157837 0.0209592 1.42242)
(-0.179205 0.0179349 1.39498)
(0.179205 -0.017935 1.39498)
(0.157837 -0.0209593 1.42242)
(0.120977 -0.023269 1.42122)
(0.0753577 -0.0247827 1.41115)
(0.0255273 -0.0255273 1.40355)
(-0.0255273 -0.0255273 1.40355)
(-0.0753577 -0.0247827 1.41115)
(-0.120977 -0.023269 1.42122)
(-0.157837 -0.0209592 1.42242)
(-0.179205 -0.0179349 1.39498)
(0.17285 -0.0523248 1.3878)
(0.152425 -0.0614424 1.4211)
(0.117081 -0.0684584 1.42434)
(0.0730789 -0.0730789 1.41725)
(0.0247827 -0.0753577 1.41115)
(-0.0247827 -0.0753577 1.41115)
(-0.0730789 -0.0730789 1.41725)
(-0.117081 -0.0684584 1.42434)
(-0.152425 -0.0614424 1.4211)
(-0.17285 -0.0523248 1.3878)
(0.160323 -0.0822748 1.37029)
(0.141608 -0.097416 1.41407)
(0.109224 -0.109224 1.42562)
(0.0684584 -0.117081 1.42434)
(0.023269 -0.120977 1.42122)
(-0.023269 -0.120977 1.42122)
(-0.0684584 -0.117081 1.42434)
(-0.109224 -0.109224 1.42562)
(-0.141608 -0.0974159 1.41407)
(-0.160323 -0.0822748 1.37029)
(0.142195 -0.105305 1.33638)
(0.125602 -0.125602 1.3917)
(0.0974159 -0.141608 1.41407)
(0.0614424 -0.152425 1.4211)
(0.0209592 -0.157837 1.42242)
(-0.0209592 -0.157837 1.42242)
(-0.0614424 -0.152425 1.4211)
(-0.0974159 -0.141608 1.41407)
(-0.125602 -0.125602 1.3917)
(-0.142195 -0.105305 1.33638)
(0.119433 -0.119433 1.27601)
(0.105305 -0.142195 1.33638)
(0.0822748 -0.160323 1.37029)
(0.0523248 -0.17285 1.3878)
(0.0179349 -0.179205 1.39498)
(-0.0179349 -0.179205 1.39498)
(-0.0523247 -0.17285 1.3878)
(-0.0822748 -0.160323 1.37029)
(-0.105305 -0.142195 1.33638)
(-0.119433 -0.119433 1.27601)
(0.0691678 0.0691678 1.1775)
(0.0663285 0.0860612 1.28498)
(0.0542915 0.100121 1.35876)
(0.0355724 0.110451 1.40443)
(0.0123761 0.115907 1.42606)
(-0.0123761 0.115907 1.42606)
(-0.0355724 0.110451 1.40443)
(-0.0542915 0.100121 1.35876)
(-0.0663285 0.0860612 1.28498)
(-0.0691678 0.0691678 1.1775)
(0.0860612 0.0663285 1.28498)
(0.0829902 0.0829902 1.40363)
(0.0680488 0.0969392 1.47467)
(0.0444957 0.107019 1.51405)
(0.01545 0.112284 1.5314)
(-0.01545 0.112284 1.5314)
(-0.0444957 0.107019 1.51405)
(-0.0680489 0.0969392 1.47467)
(-0.0829902 0.0829902 1.40363)
(-0.0860612 0.0663285 1.28498)
(0.100121 0.0542915 1.35876)
(0.0969392 0.0680488 1.47467)
(0.079551 0.079551 1.53953)
(0.0519013 0.0877176 1.57249)
(0.0179916 0.0919409 1.58593)
(-0.0179916 0.0919409 1.58593)
(-0.0519013 0.0877176 1.57249)
(-0.079551 0.079551 1.53953)
(-0.0969392 0.0680489 1.47467)
(-0.100121 0.0542915 1.35876)
(0.110451 0.0355723 1.40443)
(0.107019 0.0444957 1.51405)
(0.0877176 0.0519013 1.57249)
(0.0571038 0.0571038 1.60012)
(0.0197696 0.0597793 1.61056)
(-0.0197696 0.0597793 1.61056)
(-0.0571038 0.0571038 1.60012)
(-0.0877176 0.0519013 1.57249)
(-0.107019 0.0444957 1.51405)
(-0.110451 0.0355724 1.40443)
(0.115907 0.012376 1.42606)
(0.112284 0.01545 1.5314)
(0.0919409 0.0179916 1.58593)
(0.0597793 0.0197696 1.61056)
(0.0206819 0.0206818 1.61936)
(-0.0206818 0.0206818 1.61936)
(-0.0597793 0.0197696 1.61056)
(-0.0919409 0.0179916 1.58593)
(-0.112284 0.01545 1.5314)
(-0.115907 0.0123761 1.42606)
(0.115907 -0.0123761 1.42606)
(0.112284 -0.01545 1.5314)
(0.0919409 -0.0179916 1.58593)
(0.0597793 -0.0197696 1.61056)
(0.0206819 -0.0206819 1.61936)
(-0.0206818 -0.0206819 1.61936)
(-0.0597793 -0.0197696 1.61056)
(-0.0919409 -0.0179916 1.58593)
(-0.112284 -0.01545 1.5314)
(-0.115907 -0.0123761 1.42606)
(0.110451 -0.0355724 1.40443)
(0.107019 -0.0444957 1.51405)
(0.0877176 -0.0519014 1.57249)
(0.0571038 -0.0571038 1.60012)
(0.0197696 -0.0597793 1.61056)
(-0.0197696 -0.0597793 1.61056)
(-0.0571038 -0.0571038 1.60012)
(-0.0877176 -0.0519014 1.57249)
(-0.107019 -0.0444957 1.51405)
(-0.110451 -0.0355724 1.40443)
(0.100121 -0.0542915 1.35876)
(0.0969392 -0.0680489 1.47467)
(0.0795511 -0.0795511 1.53953)
(0.0519013 -0.0877176 1.57249)
(0.0179916 -0.0919409 1.58593)
(-0.0179916 -0.0919409 1.58593)
(-0.0519013 -0.0877176 1.57249)
(-0.079551 -0.079551 1.53953)
(-0.0969392 -0.0680489 1.47467)
(-0.100121 -0.0542915 1.35876)
(0.0860612 -0.0663285 1.28498)
(0.0829902 -0.0829902 1.40363)
(0.0680489 -0.0969392 1.47467)
(0.0444957 -0.107019 1.51405)
(0.01545 -0.112284 1.5314)
(-0.01545 -0.112284 1.5314)
(-0.0444957 -0.107019 1.51405)
(-0.0680488 -0.0969392 1.47467)
(-0.0829902 -0.0829902 1.40363)
(-0.0860611 -0.0663285 1.28498)
(0.0691679 -0.0691679 1.1775)
(0.0663285 -0.0860612 1.28498)
(0.0542915 -0.100121 1.35876)
(0.0355724 -0.110451 1.40443)
(0.0123761 -0.115907 1.42606)
(-0.0123761 -0.115907 1.42606)
(-0.0355723 -0.110451 1.40443)
(-0.0542915 -0.100121 1.35876)
(-0.0663285 -0.0860612 1.28498)
(-0.0691678 -0.0691678 1.1775)
(0.0332516 0.0332516 1.16091)
(0.0331316 0.0433267 1.28641)
(0.0280844 0.052317 1.37799)
(0.0188541 0.0591906 1.43758)
(0.00663982 0.0629071 1.46676)
(-0.00663982 0.0629071 1.46676)
(-0.0188541 0.0591907 1.43758)
(-0.0280844 0.052317 1.37799)
(-0.0331316 0.0433267 1.28641)
(-0.0332516 0.0332516 1.16091)
(0.0433267 0.0331316 1.28641)
(0.0439778 0.0439778 1.43448)
(0.0376122 0.0536891 1.53212)
(0.0252891 0.0610167 1.5912)
(0.00890237 0.0649471 1.61892)
(-0.00890235 0.0649471 1.61892)
(-0.0252891 0.0610167 1.5912)
(-0.0376122 0.0536891 1.53212)
(-0.0439778 0.0439778 1.43448)
(-0.0433267 0.0331316 1.28641)
(0.052317 0.0280844 1.37799)
(0.0536891 0.0376122 1.53212)
(0.0461137 0.0461137 1.63022)
(0.0310001 0.0524368 1.68711)
(0.010906 0.0558025 1.71295)
(-0.010906 0.0558025 1.71295)
(-0.0310001 0.0524368 1.68711)
(-0.0461137 0.0461137 1.63022)
(-0.0536891 0.0376122 1.53212)
(-0.052317 0.0280844 1.37799)
(0.0591907 0.0188541 1.43758)
(0.0610167 0.0252891 1.5912)
(0.0524368 0.0310001 1.68711)
(0.0352135 0.0352135 1.74128)
(0.0123798 0.0374466 1.76533)
(-0.0123798 0.0374466 1.76533)
(-0.0352135 0.0352135 1.74128)
(-0.0524368 0.0310001 1.68711)
(-0.0610167 0.0252891 1.5912)
(-0.0591906 0.0188541 1.43758)
(0.0629071 0.00663981 1.46676)
(0.0649471 0.00890236 1.61892)
(0.0558025 0.010906 1.71295)
(0.0374466 0.0123798 1.76533)
(0.0131595 0.0131595 1.78829)
(-0.0131594 0.0131595 1.78829)
(-0.0374465 0.0123798 1.76533)
(-0.0558025 0.010906 1.71295)
(-0.0649471 0.00890237 1.61892)
(-0.062907 0.00663983 1.46676)
(0.0629071 -0.00663983 1.46676)
(0.0649471 -0.00890236 1.61892)
(0.0558025 -0.010906 1.71295)
(0.0374466 -0.0123798 1.76533)
(0.0131595 -0.0131595 1.78829)
(-0.0131594 -0.0131595 1.78829)
(-0.0374465 -0.0123798 1.76533)
(-0.0558025 -0.010906 1.71295)
(-0.0649471 -0.00890236 1.61892)
(-0.062907 -0.00663981 1.46676)
(0.0591907 -0.0188541 1.43758)
(0.0610167 -0.0252891 1.5912)
(0.0524368 -0.0310001 1.68711)
(0.0352135 -0.0352135 1.74128)
(0.0123798 -0.0374466 1.76533)
(-0.0123798 -0.0374466 1.76533)
(-0.0352135 -0.0352135 1.74128)
(-0.0524368 -0.0310001 1.68711)
(-0.0610167 -0.0252891 1.5912)
(-0.0591906 -0.0188541 1.43758)
(0.052317 -0.0280844 1.37799)
(0.0536891 -0.0376122 1.53212)
(0.0461137 -0.0461137 1.63022)
(0.0310001 -0.0524368 1.68711)
(0.010906 -0.0558025 1.71295)
(-0.010906 -0.0558025 1.71295)
(-0.031 -0.0524368 1.68711)
(-0.0461137 -0.0461137 1.63022)
(-0.0536891 -0.0376122 1.53212)
(-0.052317 -0.0280844 1.37799)
(0.0433267 -0.0331316 1.28641)
(0.0439778 -0.0439778 1.43448)
(0.0376122 -0.0536891 1.53212)
(0.0252891 -0.0610167 1.5912)
(0.00890236 -0.0649471 1.61892)
(-0.00890235 -0.0649471 1.61892)
(-0.0252891 -0.0610167 1.5912)
(-0.0376122 -0.0536891 1.53212)
(-0.0439778 -0.0439778 1.43448)
(-0.0433267 -0.0331316 1.28641)
(0.0332516 -0.0332516 1.16091)
(0.0331316 -0.0433267 1.28641)
(0.0280844 -0.052317 1.37799)
(0.0188541 -0.0591906 1.43758)
(0.00663983 -0.0629071 1.46676)
(-0.00663981 -0.062907 1.46676)
(-0.0188541 -0.0591906 1.43758)
(-0.0280843 -0.052317 1.37799)
(-0.0331315 -0.0433267 1.28641)
(-0.0332516 -0.0332516 1.16091)
(0.0175934 0.0175934 1.1293)
(0.0181395 0.0231494 1.26458)
(0.0156937 0.0282379 1.36677)
(0.0106825 0.0322345 1.43514)
(0.00378899 0.0344324 1.46924)
(-0.00378898 0.0344324 1.46924)
(-0.0106825 0.0322345 1.43514)
(-0.0156937 0.0282379 1.36677)
(-0.0181395 0.0231494 1.26458)
(-0.0175934 0.0175934 1.1293)
(0.0231494 0.0181395 1.26458)
(0.0243795 0.0243795 1.42938)
(0.0213914 0.0301743 1.54374)
(0.0146363 0.0346861 1.61603)
(0.00519828 0.0371533 1.651)
(-0.00519826 0.0371533 1.651)
(-0.0146363 0.0346862 1.61603)
(-0.0213914 0.0301743 1.54374)
(-0.0243795 0.0243795 1.42938)
(-0.0231494 0.0181395 1.26458)
(0.0282379 0.0156937 1.36677)
(0.0301743 0.0213914 1.54374)
(0.0266956 0.0266956 1.66384)
(0.0183097 0.0307756 1.73774)
(0.00650697 0.0329925 1.77278)
(-0.00650694 0.0329925 1.77278)
(-0.0183097 0.0307757 1.73774)
(-0.0266956 0.0266956 1.66384)
(-0.0301743 0.0213914 1.54374)
(-0.0282379 0.0156937 1.36677)
(0.0322345 0.0106825 1.43514)
(0.0346861 0.0146363 1.61603)
(0.0307757 0.0183097 1.73774)
(0.0211171 0.0211171 1.81159)
(0.00750492 0.0226371 1.84619)
(-0.00750488 0.0226371 1.84619)
(-0.0211171 0.0211171 1.81159)
(-0.0307756 0.0183097 1.73774)
(-0.0346861 0.0146363 1.61603)
(-0.0322345 0.0106825 1.43514)
(0.0344323 0.00378899 1.46924)
(0.0371533 0.00519829 1.651)
(0.0329925 0.00650696 1.77278)
(0.0226371 0.0075049 1.84619)
(0.00804452 0.0080445 1.8804)
(-0.00804448 0.0080445 1.8804)
(-0.0226371 0.0075049 1.84619)
(-0.0329925 0.00650696 1.77278)
(-0.0371533 0.00519828 1.651)
(-0.0344323 0.00378899 1.46924)
(0.0344324 -0.00378897 1.46924)
(0.0371533 -0.00519825 1.651)
(0.0329925 -0.00650693 1.77278)
(0.0226371 -0.00750489 1.84619)
(0.00804452 -0.0080445 1.8804)
(-0.00804448 -0.0080445 1.8804)
(-0.0226371 -0.0075049 1.84619)
(-0.0329925 -0.00650695 1.77278)
(-0.0371533 -0.00519827 1.651)
(-0.0344323 -0.00378898 1.46924)
(0.0322345 -0.0106825 1.43514)
(0.0346861 -0.0146363 1.61603)
(0.0307756 -0.0183097 1.73774)
(0.0211171 -0.0211171 1.81159)
(0.00750491 -0.0226371 1.84619)
(-0.00750488 -0.0226371 1.84619)
(-0.0211171 -0.0211171 1.81159)
(-0.0307756 -0.0183097 1.73774)
(-0.0346861 -0.0146363 1.61603)
(-0.0322345 -0.0106825 1.43514)
(0.0282379 -0.0156937 1.36677)
(0.0301743 -0.0213914 1.54374)
(0.0266956 -0.0266956 1.66384)
(0.0183097 -0.0307756 1.73774)
(0.00650696 -0.0329925 1.77278)
(-0.00650694 -0.0329925 1.77278)
(-0.0183097 -0.0307756 1.73774)
(-0.0266956 -0.0266956 1.66384)
(-0.0301743 -0.0213913 1.54374)
(-0.0282379 -0.0156937 1.36677)
(0.0231494 -0.0181395 1.26458)
(0.0243795 -0.0243795 1.42938)
(0.0213914 -0.0301743 1.54374)
(0.0146363 -0.0346861 1.61603)
(0.00519827 -0.0371533 1.651)
(-0.00519826 -0.0371533 1.651)
(-0.0146363 -0.0346861 1.61603)
(-0.0213913 -0.0301742 1.54374)
(-0.0243795 -0.0243795 1.42938)
(-0.0231494 -0.0181395 1.26458)
(0.0175934 -0.0175934 1.1293)
(0.0181395 -0.0231494 1.26458)
(0.0156937 -0.0282379 1.36677)
(0.0106825 -0.0322345 1.43514)
(0.00378899 -0.0344323 1.46924)
(-0.00378897 -0.0344323 1.46924)
(-0.0106825 -0.0322344 1.43514)
(-0.0156936 -0.0282379 1.36677)
(-0.0181395 -0.0231494 1.26458)
(-0.0175934 -0.0175934 1.1293)
(0.00911973 0.00911973 1.11711)
(0.00954265 0.0121596 1.25663)
(0.00838316 0.0150161 1.36387)
(0.00577078 0.0172965 1.43664)
(0.00205883 0.0185634 1.4733)
(-0.00205882 0.0185634 1.4733)
(-0.00577078 0.0172965 1.43664)
(-0.00838315 0.0150161 1.36387)
(-0.00954264 0.0121596 1.25663)
(-0.00911971 0.00911973 1.11711)
(0.0121596 0.00954265 1.25663)
(0.0130698 0.0130698 1.42944)
(0.0116856 0.0164394 1.5525)
(0.00810291 0.0191161 1.63208)
(0.00289771 0.0205983 1.67117)
(-0.00289769 0.0205983 1.67117)
(-0.00810289 0.0191161 1.63208)
(-0.0116856 0.0164394 1.5525)
(-0.0130697 0.0130698 1.42944)
(-0.0121595 0.00954266 1.25663)
(0.0150161 0.00838317 1.36387)
(0.0164394 0.0116856 1.5525)
(0.0148558 0.0148558 1.6848)
(0.0103427 0.0173519 1.76869)
(0.00370401 0.018728 1.80931)
(-0.00370397 0.018728 1.80931)
(-0.0103427 0.0173519 1.76869)
(-0.0148558 0.0148559 1.6848)
(-0.0164394 0.0116856 1.5525)
(-0.0150161 0.00838318 1.36387)
(0.0172965 0.00577079 1.43664)
(0.0191161 0.00810291 1.63208)
(0.0173519 0.0103427 1.76869)
(0.0120985 0.0120985 1.85458)
(0.00433532 0.0130643 1.89588)
(-0.00433528 0.0130643 1.89588)
(-0.0120985 0.0120986 1.85458)
(-0.0173519 0.0103427 1.76869)
(-0.0191161 0.00810292 1.63208)
(-0.0172965 0.0057708 1.43664)
(0.0185633 0.00205885 1.4733)
(0.0205983 0.00289773 1.67117)
(0.018728 0.00370401 1.80931)
(0.0130643 0.00433532 1.89588)
(0.00468227 0.00468226 1.93736)
(-0.00468223 0.00468226 1.93736)
(-0.0130643 0.00433532 1.89588)
(-0.018728 0.003704 1.80931)
(-0.0205983 0.00289771 1.67117)
(-0.0185633 0.00205884 1.4733)
(0.0185633 -0.0020588 1.4733)
(0.0205983 -0.00289766 1.67117)
(0.018728 -0.00370396 1.80931)
(0.0130643 -0.00433528 1.89588)
(0.00468227 -0.00468223 1.93736)
(-0.00468223 -0.00468224 1.93736)
(-0.0130643 -0.00433529 1.89588)
(-0.018728 -0.00370398 1.80931)
(-0.0205983 -0.00289769 1.67117)
(-0.0185633 -0.00205881 1.4733)
(0.0172965 -0.00577075 1.43664)
(0.0191161 -0.00810286 1.63208)
(0.0173519 -0.0103426 1.76869)
(0.0120985 -0.0120985 1.85458)
(0.00433531 -0.0130643 1.89588)
(-0.00433529 -0.0130643 1.89588)
(-0.0120985 -0.0120985 1.85458)
(-0.0173519 -0.0103427 1.76869)
(-0.0191161 -0.00810288 1.63208)
(-0.0172965 -0.00577077 1.43664)
(0.0150161 -0.00838313 1.36387)
(0.0164394 -0.0116855 1.5525)
(0.0148558 -0.0148558 1.6848)
(0.0103427 -0.0173519 1.76869)
(0.00370399 -0.018728 1.80931)
(-0.00370398 -0.018728 1.80931)
(-0.0103427 -0.0173519 1.76869)
(-0.0148558 -0.0148558 1.6848)
(-0.0164393 -0.0116855 1.5525)
(-0.0150161 -0.00838314 1.36387)
(0.0121596 -0.00954262 1.25663)
(0.0130698 -0.0130697 1.42944)
(0.0116856 -0.0164393 1.5525)
(0.00810289 -0.019116 1.63208)
(0.0028977 -0.0205983 1.67117)
(-0.00289769 -0.0205983 1.67117)
(-0.00810288 -0.019116 1.63208)
(-0.0116856 -0.0164393 1.5525)
(-0.0130697 -0.0130697 1.42944)
(-0.0121596 -0.00954263 1.25663)
(0.00911971 -0.0091197 1.11711)
(0.00954264 -0.0121595 1.25663)
(0.00838316 -0.0150161 1.36387)
(0.00577078 -0.0172965 1.43664)
(0.00205882 -0.0185633 1.4733)
(-0.00205881 -0.0185633 1.4733)
(-0.00577076 -0.0172965 1.43664)
(-0.00838314 -0.0150161 1.36387)
(-0.00954265 -0.0121595 1.25663)
(-0.00911973 -0.00911971 1.11711)
(0.00503655 0.00503656 1.10828)
(0.00532507 0.00671705 1.25012)
(0.00471055 0.00830968 1.3602)
(0.00325937 0.00959353 1.43552)
(0.00116612 0.0103113 1.47367)
(-0.00116609 0.0103113 1.47367)
(-0.00325935 0.00959353 1.43552)
(-0.00471054 0.0083097 1.3602)
(-0.00532506 0.00671706 1.25012)
(-0.00503653 0.00503656 1.10828)
(0.00671704 0.00532508 1.25012)
(0.00730224 0.00730225 1.42731)
(0.00658903 0.00921807 1.55531)
(0.00460077 0.0107598 1.63915)
(0.00165149 0.0116206 1.68069)
(-0.00165145 0.0116206 1.68069)
(-0.00460075 0.0107598 1.63915)
(-0.00658902 0.00921808 1.55531)
(-0.00730224 0.00730227 1.42731)
(-0.00671704 0.00532509 1.25012)
(0.00830967 0.00471056 1.3602)
(0.00921805 0.00658905 1.55531)
(0.00842524 0.00842525 1.69468)
(0.00591584 0.00989331 1.78453)
(0.00212828 0.0107106 1.82856)
(-0.00212824 0.0107106 1.82856)
(-0.00591581 0.00989331 1.78453)
(-0.00842522 0.00842526 1.69468)
(-0.00921805 0.00658906 1.55531)
(-0.00830967 0.00471057 1.3602)
(0.00959351 0.00325939 1.43552)
(0.0107598 0.00460079 1.63915)
(0.00989329 0.00591585 1.78453)
(0.00696448 0.00696449 1.87776)
(0.00250835 0.00754757 1.92322)
(-0.00250831 0.00754758 1.92322)
(-0.00696445 0.0069645 1.87776)
(-0.00989328 0.00591585 1.78453)
(-0.0107597 0.00460079 1.63915)
(-0.00959351 0.00325939 1.43552)
(0.0103113 0.00116614 1.47367)
(0.0116206 0.0016515 1.68069)
(0.0107106 0.0021283 1.82856)
(0.00754756 0.00250836 1.92322)
(0.0027196 0.00271961 1.96928)
(-0.00271956 0.00271961 1.96928)
(-0.00754753 0.00250835 1.92322)
(-0.0107106 0.00212828 1.82856)
(-0.0116206 0.00165149 1.68069)
(-0.0103113 0.00116612 1.47367)
(0.0103113 -0.00116606 1.47367)
(0.0116206 -0.00165143 1.68069)
(0.0107106 -0.00212822 1.82856)
(0.00754755 -0.00250829 1.92322)
(0.0027196 -0.00271955 1.96928)
(-0.00271957 -0.00271956 1.96928)
(-0.00754753 -0.00250831 1.92322)
(-0.0107106 -0.00212825 1.82856)
(-0.0116206 -0.00165145 1.68069)
(-0.0103113 -0.00116609 1.47367)
(0.00959351 -0.00325932 1.43552)
(0.0107597 -0.00460072 1.63915)
(0.00989328 -0.00591579 1.78453)
(0.00696447 -0.00696443 1.87776)
(0.00250833 -0.00754752 1.92322)
(-0.00250832 -0.00754753 1.92322)
(-0.00696446 -0.00696445 1.87776)
(-0.00989328 -0.00591581 1.78453)
(-0.0107597 -0.00460075 1.63915)
(-0.0095935 -0.00325935 1.43552)
(0.00830967 -0.00471051 1.3602)
(0.00921805 -0.00658899 1.55531)
(0.00842523 -0.0084252 1.69468)
(0.00591582 -0.00989325 1.78453)
(0.00212826 -0.0107106 1.82856)
(-0.00212826 -0.0107106 1.82856)
(-0.00591582 -0.00989327 1.78453)
(-0.00842522 -0.00842521 1.69468)
(-0.00921804 -0.00658901 1.55531)
(-0.00830967 -0.00471052 1.3602)
(0.00671704 -0.00532503 1.25012)
(0.00730223 -0.00730221 1.42731)
(0.00658903 -0.00921802 1.55531)
(0.00460076 -0.0107597 1.63915)
(0.00165146 -0.0116206 1.68069)
(-0.00165147 -0.0116206 1.68069)
(-0.00460076 -0.0107597 1.63915)
(-0.00658902 -0.00921802 1.55531)
(-0.00730223 -0.00730221 1.42731)
(-0.00671703 -0.00532505 1.25012)
(0.00503654 -0.00503652 1.10828)
(0.00532506 -0.00671701 1.25012)
(0.00471054 -0.00830965 1.3602)
(0.00325936 -0.00959348 1.43552)
(0.0011661 -0.0103113 1.47367)
(-0.0011661 -0.0103113 1.47367)
(-0.00325935 -0.00959347 1.43552)
(-0.00471053 -0.00830963 1.3602)
(-0.00532506 -0.00671701 1.25012)
(-0.00503655 -0.00503653 1.10828)
(0.00279517 0.00279517 1.10386)
(0.00296689 0.00373867 1.24689)
(0.00263719 0.00463937 1.35849)
(0.00183174 0.00536913 1.43519)
(0.000656722 0.00577851 1.47416)
(-0.00065667 0.00577851 1.47416)
(-0.0018317 0.00536912 1.43519)
(-0.00263716 0.00463937 1.35849)
(-0.00296686 0.00373867 1.24689)
(-0.00279514 0.00279516 1.10386)
(0.00373866 0.0029669 1.24689)
(0.0040874 0.00408742 1.4264)
(0.00371073 0.00518303 1.5571)
(0.00260332 0.00607104 1.64331)
(0.000936899 0.00656926 1.68624)
(-0.000936856 0.00656926 1.68624)
(-0.00260328 0.00607103 1.64331)
(-0.0037107 0.00518302 1.5571)
(-0.00408737 0.00408741 1.4264)
(-0.00373864 0.00296689 1.24689)
(0.00463936 0.00263721 1.35849)
(0.00518301 0.00371076 1.5571)
(0.00477163 0.00477165 1.70041)
(0.00336931 0.00562767 1.79368)
(0.00121585 0.00610715 1.83967)
(-0.00121581 0.00610715 1.83967)
(-0.00336927 0.00562767 1.79367)
(-0.0047716 0.00477164 1.70041)
(-0.00518298 0.00371074 1.5571)
(-0.00463934 0.0026372 1.35849)
(0.00536911 0.00183176 1.43519)
(0.00607102 0.00260335 1.64331)
(0.00562765 0.00336933 1.79368)
(0.00398664 0.00398666 1.89117)
(0.00144075 0.00433231 1.93908)
(-0.00144071 0.00433232 1.93908)
(-0.00398662 0.00398667 1.89117)
(-0.00562763 0.00336933 1.79367)
(-0.006071 0.00260333 1.64331)
(-0.0053691 0.00183174 1.43519)
(0.0057785 0.00065674 1.47416)
(0.00656925 0.000936919 1.68624)
(0.00610712 0.00121587 1.83967)
(0.00433229 0.00144077 1.93908)
(0.00156669 0.0015667 1.98787)
(-0.00156665 0.0015667 1.98787)
(-0.00433227 0.00144077 1.93908)
(-0.00610711 0.00121587 1.83967)
(-0.00656923 0.000936906 1.68624)
(-0.00577848 0.00065672 1.47416)
(0.00577849 -0.000656657 1.47416)
(0.00656924 -0.000936844 1.68624)
(0.00610712 -0.0012158 1.83967)
(0.00433229 -0.00144069 1.93908)
(0.00156668 -0.00156663 1.98787)
(-0.00156665 -0.00156664 1.98787)
(-0.00433227 -0.00144071 1.93908)
(-0.00610711 -0.00121581 1.83967)
(-0.00656923 -0.000936857 1.68624)
(-0.00577848 -0.000656678 1.47416)
(0.0053691 -0.00183168 1.43519)
(0.00607101 -0.00260327 1.64331)
(0.00562765 -0.00336926 1.79368)
(0.00398664 -0.0039866 1.89117)
(0.00144074 -0.00433225 1.93908)
(-0.00144072 -0.00433226 1.93908)
(-0.00398662 -0.00398661 1.89117)
(-0.00562763 -0.00336928 1.79368)
(-0.006071 -0.00260329 1.64331)
(-0.0053691 -0.0018317 1.43519)
(0.00463935 -0.00263714 1.35849)
(0.00518299 -0.00371068 1.5571)
(0.00477162 -0.00477159 1.70041)
(0.0033693 -0.00562761 1.79368)
(0.00121584 -0.00610709 1.83967)
(-0.00121583 -0.0061071 1.83967)
(-0.00336929 -0.00562763 1.79368)
(-0.00477161 -0.0047716 1.70041)
(-0.00518299 -0.0037107 1.5571)
(-0.00463934 -0.00263717 1.35849)
(0.00373864 -0.00296684 1.24689)
(0.00408738 -0.00408735 1.4264)
(0.00371072 -0.00518296 1.5571)
(0.00260331 -0.00607098 1.64331)
(0.000936883 -0.0065692 1.68624)
(-0.000936879 -0.00656921 1.68624)
(-0.0026033 -0.00607099 1.64331)
(-0.00371071 -0.00518298 1.5571)
(-0.00408738 -0.00408737 1.4264)
(-0.00373865 -0.00296687 1.24689)
(0.00279515 -0.00279513 1.10386)
(0.00296687 -0.00373862 1.24689)
(0.00263718 -0.00463931 1.35849)
(0.00183173 -0.00536907 1.43519)
(0.000656702 -0.00577845 1.47416)
(-0.000656701 -0.00577845 1.47416)
(-0.00183172 -0.00536907 1.43519)
(-0.00263717 -0.00463933 1.35849)
(-0.00296687 -0.00373864 1.24689)
(-0.00279516 -0.00279515 1.10386)
(0.00159769 0.0015977 1.10116)
(0.00169961 0.00213554 1.24487)
(0.00151315 0.00264982 1.35733)
(0.00105242 0.00306752 1.43483)
(0.000377629 0.00330227 1.47427)
(-0.000377561 0.00330227 1.47427)
(-0.00105236 0.00306752 1.43483)
(-0.0015131 0.00264981 1.35733)
(-0.00169957 0.00213553 1.24487)
(-0.00159765 0.00159768 1.10116)
(0.00213553 0.00169962 1.24487)
(0.00234022 0.00234023 1.42569)
(0.00212942 0.00296895 1.55794)
(0.00149692 0.00348053 1.64552)
(0.000539357 0.00376832 1.68925)
(-0.000539298 0.00376832 1.68925)
(-0.00149686 0.00348051 1.64552)
(-0.00212937 0.00296893 1.55794)
(-0.00234017 0.00234021 1.42569)
(-0.00213549 0.0016996 1.24487)
(0.00264981 0.00151316 1.35733)
(0.00296894 0.00212944 1.55794)
(0.00274179 0.00274181 1.70352)
(0.00194118 0.00323849 1.79876)
(0.000701569 0.00351767 1.84592)
(-0.000701524 0.00351767 1.84592)
(-0.00194113 0.00323847 1.79876)
(-0.00274174 0.00274178 1.70352)
(-0.00296889 0.00212941 1.55794)
(-0.00264977 0.00151314 1.35733)
(0.00306751 0.00105243 1.43483)
(0.00348051 0.00149694 1.64552)
(0.00323847 0.00194119 1.79876)
(0.00230144 0.00230145 1.89875)
(0.000833231 0.00250401 1.94811)
(-0.000833191 0.00250401 1.94811)
(-0.0023014 0.00230145 1.89875)
(-0.00323843 0.00194118 1.79876)
(-0.00348047 0.00149692 1.64552)
(-0.00306748 0.00105241 1.43483)
(0.00330226 0.000377637 1.47427)
(0.00376831 0.000539368 1.68925)
(0.00351765 0.000701583 1.84592)
(0.00250399 0.000833244 1.94811)
(0.000907294 0.000907303 1.99852)
(-0.000907247 0.000907303 1.99852)
(-0.00250396 0.000833247 1.94811)
(-0.00351762 0.000701582 1.84592)
(-0.00376828 0.000539357 1.68925)
(-0.00330223 0.000377618 1.47427)
(0.00330225 -0.000377559 1.47427)
(0.00376831 -0.000539298 1.68925)
(0.00351765 -0.000701515 1.84592)
(0.00250399 -0.000833175 1.94811)
(0.00090729 -0.000907238 1.99852)
(-0.000907247 -0.000907244 1.99852)
(-0.00250396 -0.000833182 1.94811)
(-0.00351762 -0.000701518 1.84592)
(-0.00376828 -0.000539304 1.68925)
(-0.00330223 -0.000377577 1.47427)
(0.0030675 -0.00105236 1.43483)
(0.0034805 -0.00149687 1.64552)
(0.00323846 -0.00194113 1.79876)
(0.00230143 -0.00230139 1.89875)
(0.000833225 -0.00250395 1.94811)
(-0.000833191 -0.00250395 1.94811)
(-0.0023014 -0.0023014 1.89875)
(-0.00323844 -0.00194113 1.79876)
(-0.00348048 -0.00149687 1.64552)
(-0.00306749 -0.00105238 1.43483)
(0.00264979 -0.0015131 1.35733)
(0.00296892 -0.00212937 1.55794)
(0.00274178 -0.00274174 1.70352)
(0.00194117 -0.00323843 1.79876)
(0.00070156 -0.00351761 1.84592)
(-0.000701534 -0.00351762 1.84592)
(-0.00194114 -0.00323844 1.79876)
(-0.00274175 -0.00274176 1.70352)
(-0.0029689 -0.00212939 1.55794)
(-0.00264979 -0.00151312 1.35733)
(0.00213551 -0.00169956 1.24487)
(0.0023402 -0.00234016 1.42569)
(0.0021294 -0.00296888 1.55794)
(0.00149691 -0.00348047 1.64552)
(0.000539343 -0.00376827 1.68925)
(-0.000539322 -0.00376827 1.68925)
(-0.00149688 -0.00348048 1.64552)
(-0.00212938 -0.00296891 1.55794)
(-0.00234019 -0.0023402 1.42569)
(-0.00213551 -0.0016996 1.24487)
(0.00159767 -0.00159765 1.10116)
(0.00169959 -0.00213548 1.24487)
(0.00151313 -0.00264976 1.35733)
(0.0010524 -0.00306747 1.43483)
(0.000377607 -0.00330222 1.47427)
(-0.000377594 -0.00330222 1.47427)
(-0.00105239 -0.00306748 1.43483)
(-0.00151312 -0.00264978 1.35733)
(-0.00169959 -0.00213552 1.24487)
(-0.00159767 -0.00159768 1.10116)
(0.000919385 0.000919389 1.09967)
(0.000978483 0.00122951 1.24375)
(0.000871975 0.00152647 1.3567)
(0.000607004 0.00176791 1.43465)
(0.000217926 0.0019037 1.47437)
(-0.00021785 0.0019037 1.47437)
(-0.000606932 0.00176791 1.43465)
(-0.000871915 0.00152647 1.3567)
(-0.000978438 0.00122951 1.24375)
(-0.000919345 0.000919383 1.09967)
(0.00122951 0.000978488 1.24375)
(0.00134846 0.00134847 1.42531)
(0.00122857 0.00171231 1.55844)
(0.000864652 0.0020089 1.64681)
(0.000311769 0.00217597 1.69101)
(-0.000311691 0.00217596 1.69101)
(-0.000864579 0.00200889 1.64681)
(-0.00122851 0.0017123 1.55844)
(-0.00134841 0.00134845 1.42531)
(-0.00122947 0.000978481 1.24375)
(0.00152647 0.00087198 1.3567)
(0.00171231 0.00122858 1.55844)
(0.00158391 0.00158392 1.70532)
(0.00112307 0.00187289 1.80171)
(0.000406256 0.00203562 1.84954)
(-0.000406189 0.00203561 1.84954)
(-0.001123 0.00187287 1.80171)
(-0.00158385 0.0015839 1.70532)
(-0.00171225 0.00122856 1.55844)