/*--------------------------------*- C++ -*----------------------------------*\
| =========                 |                                                 |
| \\      /  F ield         | OpenFOAM: The Open Source CFD Toolbox           |
|  \\    /   O peration     | Version:  2412                                  |
|   \\  /    A nd           | Website:  www.openfoam.com                      |
|    \\/     M anipulation  |                                                 |
\*---------------------------------------------------------------------------*/
FoamFile
{
    version     2.0;
    format      ascii;
    arch        "LSB;label=32;scalar=64";
    class       volVectorField;
    location    "9.9";
    object      U;
}
// * * * * * * * * * * * * * * * * * * * * * * * * * * * * * * * * * * * * * //

dimensions      [0 1 -1 0 0 0 0];

internalField   nonuniform List<vector> 
15000
(
(0.00119753 0.00119753 0.0103761)
(0.000883969 0.00111747 0.0103236)
(0.000601929 0.00108938 0.0102808)
(0.000353337 0.00106243 0.0102532)
(0.000116046 0.00105011 0.0102405)
(-0.000116046 0.00105011 0.0102405)
(-0.000353337 0.00106243 0.0102532)
(-0.000601929 0.00108938 0.0102808)
(-0.000883969 0.00111747 0.0103236)
(-0.00119753 0.00119753 0.0103761)
(0.00111747 0.000883969 0.0103236)
(0.000830984 0.000830984 0.0102581)
(0.000568801 0.000793543 0.0102168)
(0.000331969 0.000767499 0.0101953)
(0.000108976 0.000755065 0.0101864)
(-0.000108976 0.000755065 0.0101864)
(-0.000331969 0.000767499 0.0101953)
(-0.000568801 0.000793543 0.0102168)
(-0.000830984 0.000830984 0.0102581)
(-0.00111747 0.000883969 0.0103236)
(0.00108938 0.000601929 0.0102808)
(0.000793543 0.000568801 0.0102168)
(0.000539828 0.000539828 0.0101843)
(0.000313661 0.000519339 0.0101696)
(0.000102818 0.000509205 0.0101639)
(-0.000102818 0.000509205 0.0101639)
(-0.000313661 0.000519339 0.0101696)
(-0.000539828 0.000539828 0.0101843)
(-0.000793543 0.000568801 0.0102168)
(-0.00108938 0.000601929 0.0102808)
(0.00106243 0.000353337 0.0102532)
(0.000767499 0.000331969 0.0101953)
(0.000519339 0.000313661 0.0101696)
(0.000300682 0.000300682 0.0101587)
(9.8423e-05 0.000294177 0.0101545)
(-9.8423e-05 0.000294177 0.0101545)
(-0.000300682 0.000300682 0.0101587)
(-0.000519339 0.000313661 0.0101696)
(-0.000767499 0.000331969 0.0101953)
(-0.00106243 0.000353337 0.0102532)
(0.00105011 0.000116046 0.0102405)
(0.000755065 0.000108976 0.0101864)
(0.000509205 0.000102818 0.0101639)
(0.000294177 9.8423e-05 0.0101545)
(9.6207e-05 9.6207e-05 0.0101508)
(-9.62071e-05 9.6207e-05 0.0101508)
(-0.000294177 9.8423e-05 0.0101545)
(-0.000509205 0.000102818 0.0101639)
(-0.000755065 0.000108976 0.0101864)
(-0.00105011 0.000116046 0.0102405)
(0.00105011 -0.000116046 0.0102405)
(0.000755065 -0.000108976 0.0101864)
(0.000509205 -0.000102818 0.0101639)
(0.000294177 -9.8423e-05 0.0101545)
(9.6207e-05 -9.62071e-05 0.0101508)
(-9.6207e-05 -9.6207e-05 0.0101508)
(-0.000294177 -9.8423e-05 0.0101545)
(-0.000509205 -0.000102818 0.0101639)
(-0.000755065 -0.000108976 0.0101864)
(-0.00105011 -0.000116046 0.0102405)
(0.00106243 -0.000353337 0.0102532)
(0.000767499 -0.000331969 0.0101953)
(0.000519339 -0.000313661 0.0101696)
(0.000300682 -0.000300682 0.0101587)
(9.8423e-05 -0.000294177 0.0101545)
(-9.8423e-05 -0.000294177 0.0101545)
(-0.000300682 -0.000300682 0.0101587)
(-0.000519339 -0.000313661 0.0101696)
(-0.000767499 -0.000331969 0.0101953)
(-0.00106243 -0.000353337 0.0102532)
(0.00108938 -0.000601929 0.0102808)
(0.000793543 -0.000568801 0.0102168)
(0.000539828 -0.000539828 0.0101843)
(0.000313661 -0.000519339 0.0101696)
(0.000102818 -0.000509205 0.0101639)
(-0.000102818 -0.000509205 0.0101639)
(-0.000313661 -0.000519339 0.0101696)
(-0.000539828 -0.000539828 0.0101843)
(-0.000793543 -0.000568801 0.0102168)
(-0.00108938 -0.000601929 0.0102808)
(0.00111747 -0.000883969 0.0103236)
(0.000830984 -0.000830984 0.0102581)
(0.000568801 -0.000793543 0.0102168)
(0.000331969 -0.000767499 0.0101953)
(0.000108976 -0.000755065 0.0101864)
(-0.000108976 -0.000755065 0.0101864)
(-0.000331969 -0.000767499 0.0101953)
(-0.000568801 -0.000793543 0.0102168)
(-0.000830984 -0.000830984 0.0102581)
(-0.00111747 -0.000883969 0.0103236)
(0.00119753 -0.00119753 0.0103761)
(0.000883969 -0.00111747 0.0103236)
(0.000601929 -0.00108938 0.0102808)
(0.000353337 -0.00106243 0.0102532)
(0.000116046 -0.00105011 0.0102405)
(-0.000116046 -0.00105011 0.0102405)
(-0.000353337 -0.00106243 0.0102532)
(-0.000601929 -0.00108938 0.0102808)
(-0.000883969 -0.00111747 0.0103236)
(-0.00119753 -0.00119753 0.0103761)
(0.000829344 0.000829344 0.0126993)
(0.000657924 0.000878616 0.0126626)
(0.000469198 0.000907006 0.0125621)
(0.000280858 0.00091762 0.0124666)
(9.30249e-05 0.000922119 0.0124127)
(-9.30249e-05 0.000922119 0.0124127)
(-0.000280858 0.00091762 0.0124666)
(-0.000469198 0.000907006 0.0125621)
(-0.000657924 0.000878616 0.0126626)
(-0.000829344 0.000829344 0.0126993)
(0.000878616 0.000657924 0.0126626)
(0.000682807 0.000682807 0.0124875)
(0.00047875 0.00068886 0.0122933)
(0.000282254 0.000686154 0.0121486)
(9.3003e-05 0.000683756 0.0120743)
(-9.3003e-05 0.000683756 0.0120743)
(-0.000282254 0.000686154 0.0121486)
(-0.00047875 0.00068886 0.0122933)
(-0.000682807 0.000682807 0.0124875)
(-0.000878616 0.000657924 0.0126626)
(0.000907006 0.000469198 0.0125621)
(0.00068886 0.00047875 0.0122933)
(0.000475686 0.000475686 0.0120539)
(0.000277538 0.000469251 0.0118916)
(9.10738e-05 0.000465253 0.0118118)
(-9.10738e-05 0.000465253 0.0118118)
(-0.000277538 0.000469251 0.0118916)
(-0.000475686 0.000475686 0.0120539)
(-0.00068886 0.00047875 0.0122933)
(-0.000907006 0.000469198 0.0125621)
(0.00091762 0.000280858 0.0124666)
(0.000686154 0.000282254 0.0121486)
(0.000469251 0.000277538 0.0118916)
(0.000272199 0.000272199 0.0117254)
(8.91117e-05 0.00026913 0.0116453)
(-8.91117e-05 0.00026913 0.0116453)
(-0.000272199 0.000272199 0.0117254)
(-0.000469251 0.000277538 0.0118916)
(-0.000686154 0.000282254 0.0121486)
(-0.00091762 0.000280858 0.0124666)
(0.000922119 9.30249e-05 0.0124127)
(0.000683756 9.3003e-05 0.0120743)
(0.000465253 9.10738e-05 0.0118118)
(0.00026913 8.91117e-05 0.0116453)
(8.80086e-05 8.80086e-05 0.0115657)
(-8.80086e-05 8.80086e-05 0.0115657)
(-0.00026913 8.91117e-05 0.0116453)
(-0.000465253 9.10738e-05 0.0118118)
(-0.000683756 9.3003e-05 0.0120743)
(-0.000922119 9.30249e-05 0.0124127)
(0.000922119 -9.30249e-05 0.0124127)
(0.000683756 -9.3003e-05 0.0120743)
(0.000465253 -9.10738e-05 0.0118118)
(0.00026913 -8.91117e-05 0.0116453)
(8.80086e-05 -8.80086e-05 0.0115657)
(-8.80086e-05 -8.80086e-05 0.0115657)
(-0.00026913 -8.91117e-05 0.0116453)
(-0.000465253 -9.10738e-05 0.0118118)
(-0.000683756 -9.3003e-05 0.0120743)
(-0.000922119 -9.30249e-05 0.0124127)
(0.00091762 -0.000280858 0.0124666)
(0.000686154 -0.000282254 0.0121486)
(0.000469251 -0.000277538 0.0118916)
(0.000272199 -0.000272199 0.0117254)
(8.91117e-05 -0.00026913 0.0116453)
(-8.91117e-05 -0.00026913 0.0116453)
(-0.000272199 -0.000272199 0.0117254)
(-0.000469251 -0.000277538 0.0118916)
(-0.000686154 -0.000282254 0.0121486)
(-0.00091762 -0.000280858 0.0124666)
(0.000907006 -0.000469198 0.0125621)
(0.00068886 -0.00047875 0.0122933)
(0.000475686 -0.000475686 0.0120539)
(0.000277538 -0.000469251 0.0118916)
(9.10738e-05 -0.000465253 0.0118118)
(-9.10738e-05 -0.000465253 0.0118118)
(-0.000277538 -0.000469251 0.0118916)
(-0.000475686 -0.000475686 0.0120539)
(-0.00068886 -0.00047875 0.0122933)
(-0.000907006 -0.000469198 0.0125621)
(0.000878616 -0.000657924 0.0126626)
(0.000682807 -0.000682807 0.0124875)
(0.00047875 -0.00068886 0.0122933)
(0.000282254 -0.000686154 0.0121486)
(9.3003e-05 -0.000683756 0.0120743)
(-9.3003e-05 -0.000683756 0.0120743)
(-0.000282254 -0.000686154 0.0121486)
(-0.00047875 -0.00068886 0.0122933)
(-0.000682807 -0.000682807 0.0124875)
(-0.000878616 -0.000657924 0.0126626)
(0.000829344 -0.000829344 0.0126993)
(0.000657924 -0.000878616 0.0126626)
(0.000469198 -0.000907006 0.0125621)
(0.000280858 -0.00091762 0.0124666)
(9.30249e-05 -0.000922119 0.0124127)
(-9.30249e-05 -0.000922119 0.0124127)
(-0.000280858 -0.00091762 0.0124666)
(-0.000469198 -0.000907006 0.0125621)
(-0.000657924 -0.000878616 0.0126626)
(-0.000829344 -0.000829344 0.0126993)
(0.00067699 0.00067699 0.0125257)
(0.000568698 0.000768951 0.0128291)
(0.000430014 0.000830873 0.012942)
(0.000266374 0.000866573 0.0129639)
(8.97989e-05 0.000883127 0.0129605)
(-8.97989e-05 0.000883127 0.0129605)
(-0.000266374 0.000866573 0.0129639)
(-0.000430014 0.000830873 0.012942)
(-0.000568698 0.000768951 0.0128291)
(-0.00067699 0.00067699 0.0125257)
(0.000768951 0.000568698 0.0128291)
(0.000642188 0.000642188 0.0129612)
(0.000475407 0.00068394 0.012923)
(0.000290247 0.000704061 0.0128473)
(9.72867e-05 0.000712195 0.0127974)
(-9.72867e-05 0.000712195 0.0127974)
(-0.000290247 0.000704061 0.0128473)
(-0.000475407 0.00068394 0.012923)
(-0.000642188 0.000642188 0.0129612)
(-0.000768951 0.000568698 0.0128291)
(0.000830873 0.000430014 0.012942)
(0.00068394 0.000475407 0.012923)
(0.000498578 0.000498578 0.0127805)
(0.000300946 0.000507915 0.012646)
(0.000100375 0.000510987 0.0125708)
(-0.000100375 0.000510987 0.0125708)
(-0.000300946 0.000507915 0.012646)
(-0.000498578 0.000498578 0.0127805)
(-0.00068394 0.000475407 0.012923)
(-0.000830873 0.000430014 0.012942)
(0.000866573 0.000266374 0.0129639)
(0.000704061 0.000290247 0.0128473)
(0.000507915 0.000300946 0.012646)
(0.000304453 0.000304453 0.0124826)
(0.000101236 0.000305258 0.0123964)
(-0.000101236 0.000305258 0.0123964)
(-0.000304453 0.000304453 0.0124826)
(-0.000507915 0.000300946 0.012646)
(-0.000704061 0.000290247 0.0128473)
(-0.000866573 0.000266374 0.0129639)
(0.000883127 8.97989e-05 0.0129605)
(0.000712195 9.72867e-05 0.0127974)
(0.000510987 0.000100375 0.0125708)
(0.000305258 0.000101236 0.0123964)
(0.000101355 0.000101355 0.0123063)
(-0.000101355 0.000101355 0.0123063)
(-0.000305258 0.000101236 0.0123964)
(-0.000510987 0.000100375 0.0125708)
(-0.000712195 9.72867e-05 0.0127974)
(-0.000883127 8.97989e-05 0.0129605)
(0.000883127 -8.97989e-05 0.0129605)
(0.000712195 -9.72867e-05 0.0127974)
(0.000510987 -0.000100375 0.0125708)
(0.000305258 -0.000101236 0.0123964)
(0.000101355 -0.000101355 0.0123063)
(-0.000101355 -0.000101355 0.0123063)
(-0.000305258 -0.000101236 0.0123964)
(-0.000510987 -0.000100375 0.0125708)
(-0.000712195 -9.72867e-05 0.0127974)
(-0.000883127 -8.97989e-05 0.0129605)
(0.000866573 -0.000266374 0.0129639)
(0.000704061 -0.000290247 0.0128473)
(0.000507915 -0.000300946 0.012646)
(0.000304453 -0.000304453 0.0124826)
(0.000101236 -0.000305258 0.0123964)
(-0.000101236 -0.000305258 0.0123964)
(-0.000304453 -0.000304453 0.0124826)
(-0.000507915 -0.000300946 0.012646)
(-0.000704061 -0.000290247 0.0128473)
(-0.000866573 -0.000266374 0.0129639)
(0.000830873 -0.000430014 0.012942)
(0.00068394 -0.000475408 0.012923)
(0.000498578 -0.000498578 0.0127805)
(0.000300946 -0.000507915 0.012646)
(0.000100375 -0.000510987 0.0125708)
(-0.000100375 -0.000510987 0.0125708)
(-0.000300946 -0.000507915 0.012646)
(-0.000498578 -0.000498578 0.0127805)
(-0.00068394 -0.000475407 0.012923)
(-0.000830873 -0.000430014 0.012942)
(0.000768951 -0.000568698 0.0128291)
(0.000642188 -0.000642188 0.0129612)
(0.000475407 -0.00068394 0.012923)
(0.000290247 -0.000704061 0.0128473)
(9.72867e-05 -0.000712195 0.0127974)
(-9.72867e-05 -0.000712195 0.0127974)
(-0.000290247 -0.000704061 0.0128473)
(-0.000475407 -0.00068394 0.012923)
(-0.000642188 -0.000642188 0.0129612)
(-0.000768951 -0.000568698 0.0128291)
(0.00067699 -0.00067699 0.0125257)
(0.000568698 -0.000768951 0.0128291)
(0.000430014 -0.000830873 0.012942)
(0.000266374 -0.000866573 0.0129639)
(8.97989e-05 -0.000883127 0.0129605)
(-8.97989e-05 -0.000883127 0.0129605)
(-0.000266374 -0.000866573 0.0129639)
(-0.000430014 -0.000830873 0.012942)
(-0.000568698 -0.000768951 0.0128291)
(-0.00067699 -0.00067699 0.0125257)
(0.000387323 0.000387323 0.012756)
(0.000337782 0.000470747 0.0132661)
(0.000267167 0.000531581 0.01353)
(0.000169595 0.000571192 0.0136453)
(5.79021e-05 0.000590154 0.0136852)
(-5.79021e-05 0.000590154 0.0136852)
(-0.000169595 0.000571192 0.0136453)
(-0.000267167 0.000531581 0.01353)
(-0.000337782 0.000470747 0.0132661)
(-0.000387323 0.000387323 0.012756)
(0.000470747 0.000337782 0.0132661)
(0.00041325 0.00041325 0.0136316)
(0.000318836 0.000463927 0.0137355)
(0.000199727 0.000493749 0.0137347)
(6.77941e-05 0.000507398 0.0137158)
(-6.77941e-05 0.000507398 0.0137158)
(-0.000199727 0.000493749 0.0137347)
(-0.000318836 0.000463927 0.0137355)
(-0.00041325 0.00041325 0.0136316)
(-0.000470747 0.000337782 0.0132661)
(0.000531581 0.000267167 0.01353)
(0.000463927 0.000318836 0.0137355)
(0.000352805 0.000352805 0.0137074)
(0.000218722 0.000371891 0.0136216)
(7.39041e-05 0.000380336 0.0135627)
(-7.39041e-05 0.000380336 0.0135627)
(-0.000218722 0.000371891 0.0136216)
(-0.000352805 0.000352805 0.0137074)
(-0.000463927 0.000318836 0.0137355)
(-0.000531581 0.000267167 0.01353)
(0.000571192 0.000169595 0.0136453)
(0.000493749 0.000199727 0.0137347)
(0.000371891 0.000218722 0.0136216)
(0.00022911 0.00022911 0.0134866)
(7.72043e-05 0.000233614 0.0134063)
(-7.72043e-05 0.000233614 0.0134063)
(-0.00022911 0.00022911 0.0134866)
(-0.000371891 0.000218722 0.0136216)
(-0.000493749 0.000199727 0.0137347)
(-0.000571192 0.000169595 0.0136453)
(0.000590154 5.79021e-05 0.0136852)
(0.000507398 6.77941e-05 0.0137158)
(0.000380336 7.39041e-05 0.0135627)
(0.000233614 7.72043e-05 0.0134063)
(7.86211e-05 7.86211e-05 0.0133173)
(-7.86211e-05 7.86211e-05 0.0133173)
(-0.000233614 7.72043e-05 0.0134063)
(-0.000380336 7.39041e-05 0.0135627)
(-0.000507398 6.77941e-05 0.0137158)
(-0.000590154 5.79021e-05 0.0136852)
(0.000590154 -5.79021e-05 0.0136852)
(0.000507398 -6.77941e-05 0.0137158)
(0.000380336 -7.39041e-05 0.0135627)
(0.000233614 -7.72043e-05 0.0134063)
(7.86211e-05 -7.86211e-05 0.0133173)
(-7.86211e-05 -7.86211e-05 0.0133173)
(-0.000233614 -7.72043e-05 0.0134063)
(-0.000380336 -7.39041e-05 0.0135627)
(-0.000507398 -6.77941e-05 0.0137158)
(-0.000590154 -5.79021e-05 0.0136852)
(0.000571192 -0.000169595 0.0136453)
(0.000493749 -0.000199727 0.0137347)
(0.000371891 -0.000218722 0.0136216)
(0.00022911 -0.00022911 0.0134866)
(7.72043e-05 -0.000233614 0.0134063)
(-7.72043e-05 -0.000233614 0.0134063)
(-0.00022911 -0.00022911 0.0134866)
(-0.000371891 -0.000218722 0.0136216)
(-0.000493749 -0.000199727 0.0137347)
(-0.000571192 -0.000169595 0.0136453)
(0.000531581 -0.000267167 0.01353)
(0.000463927 -0.000318836 0.0137355)
(0.000352805 -0.000352805 0.0137074)
(0.000218722 -0.000371891 0.0136216)
(7.39041e-05 -0.000380336 0.0135627)
(-7.39041e-05 -0.000380336 0.0135627)
(-0.000218722 -0.000371891 0.0136216)
(-0.000352805 -0.000352805 0.0137074)
(-0.000463927 -0.000318836 0.0137355)
(-0.000531581 -0.000267167 0.01353)
(0.000470747 -0.000337782 0.0132661)
(0.00041325 -0.00041325 0.0136316)
(0.000318836 -0.000463927 0.0137355)
(0.000199727 -0.000493749 0.0137347)
(6.77941e-05 -0.000507398 0.0137158)
(-6.77941e-05 -0.000507398 0.0137158)
(-0.000199727 -0.000493749 0.0137347)
(-0.000318836 -0.000463927 0.0137355)
(-0.00041325 -0.00041325 0.0136316)
(-0.000470747 -0.000337782 0.0132661)
(0.000387323 -0.000387323 0.012756)
(0.000337782 -0.000470747 0.0132661)
(0.000267167 -0.000531581 0.01353)
(0.000169595 -0.000571192 0.0136453)
(5.79021e-05 -0.000590154 0.0136852)
(-5.79021e-05 -0.000590154 0.0136852)
(-0.000169595 -0.000571192 0.0136453)
(-0.000267167 -0.000531581 0.01353)
(-0.000337782 -0.000470747 0.0132661)
(-0.000387323 -0.000387323 0.012756)
(0.000228481 0.000228481 0.0126415)
(0.000203 0.000283643 0.0132981)
(0.000165192 0.000327565 0.0136804)
(0.00010656 0.000357851 0.0138753)
(3.66911e-05 0.000372759 0.0139545)
(-3.66911e-05 0.000372759 0.0139545)
(-0.00010656 0.000357851 0.0138753)
(-0.000165192 0.000327565 0.0136804)
(-0.000203 0.000283643 0.0132981)
(-0.000228481 0.000228481 0.0126415)
(0.000283643 0.000203 0.0132981)
(0.000258251 0.000258251 0.0138528)
(0.000205589 0.000298824 0.0140899)
(0.00013134 0.000324828 0.0141704)
(4.50175e-05 0.000337343 0.0141893)
(-4.50175e-05 0.000337343 0.0141893)
(-0.00013134 0.000324828 0.0141704)
(-0.000205589 0.000298824 0.0140899)
(-0.000258251 0.000258251 0.0138528)
(-0.000283643 0.000203 0.0132981)
(0.000327565 0.000165192 0.0136804)
(0.000298824 0.000205589 0.0140899)
(0.000235228 0.000235228 0.014192)
(0.000149096 0.000253727 0.0141792)
(5.09275e-05 0.000262492 0.0141524)
(-5.09275e-05 0.000262492 0.0141524)
(-0.000149096 0.000253727 0.0141792)
(-0.000235228 0.000235228 0.014192)
(-0.000298824 0.000205589 0.0140899)
(-0.000327565 0.000165192 0.0136804)
(0.000357851 0.00010656 0.0138753)
(0.000324828 0.00013134 0.0141704)
(0.000253727 0.000149096 0.0141792)
(0.000160014 0.000160014 0.0141082)
(5.45397e-05 0.000165139 0.014055)
(-5.45397e-05 0.000165139 0.014055)
(-0.000160014 0.000160014 0.0141082)
(-0.000253727 0.000149096 0.0141792)
(-0.000324828 0.00013134 0.0141704)
(-0.000357851 0.00010656 0.0138753)
(0.000372759 3.66911e-05 0.0139545)
(0.000337343 4.50175e-05 0.0141893)
(0.000262492 5.09275e-05 0.0141524)
(0.000165139 5.45397e-05 0.014055)
(5.62285e-05 5.62285e-05 0.0139905)
(-5.62285e-05 5.62285e-05 0.0139905)
(-0.000165139 5.45397e-05 0.014055)
(-0.000262492 5.09275e-05 0.0141524)
(-0.000337343 4.50175e-05 0.0141893)
(-0.000372759 3.66911e-05 0.0139545)
(0.000372759 -3.66911e-05 0.0139545)
(0.000337343 -4.50175e-05 0.0141893)
(0.000262492 -5.09275e-05 0.0141524)
(0.000165139 -5.45397e-05 0.014055)
(5.62285e-05 -5.62285e-05 0.0139905)
(-5.62285e-05 -5.62285e-05 0.0139905)
(-0.000165139 -5.45397e-05 0.014055)
(-0.000262492 -5.09275e-05 0.0141524)
(-0.000337343 -4.50175e-05 0.0141893)
(-0.000372759 -3.66911e-05 0.0139545)
(0.000357851 -0.00010656 0.0138753)
(0.000324828 -0.00013134 0.0141704)
(0.000253727 -0.000149096 0.0141792)
(0.000160014 -0.000160014 0.0141082)
(5.45397e-05 -0.000165139 0.014055)
(-5.45397e-05 -0.000165139 0.014055)
(-0.000160014 -0.000160014 0.0141082)
(-0.000253727 -0.000149096 0.0141792)
(-0.000324828 -0.00013134 0.0141704)
(-0.000357851 -0.00010656 0.0138753)
(0.000327565 -0.000165192 0.0136804)
(0.000298824 -0.000205589 0.0140899)
(0.000235228 -0.000235228 0.014192)
(0.000149096 -0.000253727 0.0141792)
(5.09275e-05 -0.000262492 0.0141524)
(-5.09275e-05 -0.000262492 0.0141524)
(-0.000149096 -0.000253727 0.0141792)
(-0.000235228 -0.000235228 0.014192)
(-0.000298824 -0.000205589 0.0140899)
(-0.000327565 -0.000165192 0.0136804)
(0.000283643 -0.000203 0.0132981)
(0.000258251 -0.000258251 0.0138528)
(0.000205589 -0.000298824 0.0140899)
(0.00013134 -0.000324828 0.0141704)
(4.50175e-05 -0.000337343 0.0141893)
(-4.50175e-05 -0.000337343 0.0141893)
(-0.00013134 -0.000324828 0.0141704)
(-0.000205589 -0.000298824 0.0140899)
(-0.000258251 -0.000258251 0.0138528)
(-0.000283643 -0.000203 0.0132981)
(0.000228481 -0.000228481 0.0126415)
(0.000203 -0.000283643 0.0132981)
(0.000165192 -0.000327565 0.0136804)
(0.00010656 -0.000357851 0.0138753)
(3.66911e-05 -0.000372759 0.0139545)
(-3.66911e-05 -0.000372759 0.0139545)
(-0.00010656 -0.000357851 0.0138753)
(-0.000165192 -0.000327565 0.0136804)
(-0.000203 -0.000283643 0.0132981)
(-0.000228481 -0.000228481 0.0126415)
(0.000111794 0.000111794 0.0125535)
(0.000102707 0.000144614 0.0132746)
(8.68691e-05 0.000172694 0.0137166)
(5.72773e-05 0.000193148 0.0139555)
(1.99503e-05 0.000203523 0.0140576)
(-1.99503e-05 0.000203523 0.0140576)
(-5.72773e-05 0.000193148 0.0139555)
(-8.68691e-05 0.000172694 0.0137166)
(-0.000102707 0.000144614 0.0132746)
(-0.000111794 0.000111794 0.0125535)
(0.000144614 0.000102707 0.0132746)
(0.000138448 0.000138448 0.0139307)
(0.000114924 0.000167126 0.0142491)
(7.53714e-05 0.000186961 0.0143848)
(2.61745e-05 0.000196948 0.0144311)
(-2.61745e-05 0.000196948 0.0144311)
(-7.53714e-05 0.000186961 0.0143848)
(-0.000114924 0.000167126 0.0142491)
(-0.000138448 0.000138448 0.0139307)
(-0.000144614 0.000102707 0.0132746)
(0.000172694 8.68691e-05 0.0137166)
(0.000167126 0.000114924 0.0142491)
(0.000137702 0.000137702 0.0144432)
(8.98532e-05 0.000153184 0.0144892)
(3.1132e-05 0.000160913 0.0144906)
(-3.1132e-05 0.000160913 0.0144906)
(-8.98532e-05 0.000153184 0.0144892)
(-0.000137702 0.000137702 0.0144432)
(-0.000167126 0.000114924 0.0142491)
(-0.000172694 8.68691e-05 0.0137166)
(0.000193148 5.72773e-05 0.0139555)
(0.000186961 7.53714e-05 0.0143848)
(0.000153184 8.98532e-05 0.0144892)
(9.95913e-05 9.95913e-05 0.0144771)
(3.44509e-05 0.00010442 0.0144516)
(-3.44509e-05 0.00010442 0.0144516)
(-9.95913e-05 9.95913e-05 0.0144771)
(-0.000153184 8.98532e-05 0.0144892)
(-0.000186961 7.53714e-05 0.0143848)
(-0.000193148 5.72773e-05 0.0139555)
(0.000203523 1.99503e-05 0.0140576)
(0.000196948 2.61745e-05 0.0144311)
(0.000160913 3.1132e-05 0.0144906)
(0.00010442 3.44509e-05 0.0144516)
(3.60914e-05 3.60914e-05 0.0144144)
(-3.60914e-05 3.60914e-05 0.0144144)
(-0.00010442 3.44509e-05 0.0144516)
(-0.000160913 3.1132e-05 0.0144906)
(-0.000196948 2.61745e-05 0.0144311)
(-0.000203523 1.99503e-05 0.0140576)
(0.000203523 -1.99503e-05 0.0140576)
(0.000196948 -2.61745e-05 0.0144311)
(0.000160913 -3.1132e-05 0.0144906)
(0.00010442 -3.44509e-05 0.0144516)
(3.60914e-05 -3.60914e-05 0.0144144)
(-3.60914e-05 -3.60914e-05 0.0144144)
(-0.00010442 -3.44509e-05 0.0144516)
(-0.000160913 -3.1132e-05 0.0144906)
(-0.000196948 -2.61745e-05 0.0144311)
(-0.000203523 -1.99503e-05 0.0140576)
(0.000193148 -5.72773e-05 0.0139555)
(0.000186961 -7.53714e-05 0.0143848)
(0.000153184 -8.98532e-05 0.0144892)
(9.95913e-05 -9.95913e-05 0.0144771)
(3.44509e-05 -0.00010442 0.0144516)
(-3.44509e-05 -0.00010442 0.0144516)
(-9.95913e-05 -9.95913e-05 0.0144771)
(-0.000153184 -8.98532e-05 0.0144892)
(-0.000186961 -7.53714e-05 0.0143848)
(-0.000193148 -5.72773e-05 0.0139555)
(0.000172694 -8.68691e-05 0.0137166)
(0.000167126 -0.000114924 0.0142491)
(0.000137702 -0.000137702 0.0144432)
(8.98532e-05 -0.000153184 0.0144892)
(3.1132e-05 -0.000160913 0.0144906)
(-3.1132e-05 -0.000160913 0.0144906)
(-8.98532e-05 -0.000153184 0.0144892)
(-0.000137702 -0.000137702 0.0144432)
(-0.000167126 -0.000114924 0.0142491)
(-0.000172694 -8.68691e-05 0.0137166)
(0.000144614 -0.000102707 0.0132746)
(0.000138448 -0.000138448 0.0139307)
(0.000114924 -0.000167126 0.0142491)
(7.53714e-05 -0.000186961 0.0143848)
(2.61745e-05 -0.000196948 0.0144311)
(-2.61745e-05 -0.000196948 0.0144311)
(-7.53714e-05 -0.000186961 0.0143848)
(-0.000114924 -0.000167126 0.0142491)
(-0.000138448 -0.000138448 0.0139307)
(-0.000144614 -0.000102707 0.0132746)
(0.000111794 -0.000111794 0.0125535)
(0.000102707 -0.000144614 0.0132746)
(8.68691e-05 -0.000172694 0.0137166)
(5.72773e-05 -0.000193148 0.0139555)
(1.99503e-05 -0.000203523 0.0140576)
(-1.99503e-05 -0.000203523 0.0140576)
(-5.72773e-05 -0.000193148 0.0139555)
(-8.68691e-05 -0.000172694 0.0137166)
(-0.000102707 -0.000144614 0.0132746)
(-0.000111794 -0.000111794 0.0125535)
(4.7855e-05 4.78551e-05 0.0124948)
(4.55161e-05 6.42502e-05 0.0132423)
(4.00187e-05 7.93486e-05 0.0137123)
(2.697e-05 9.09266e-05 0.0139739)
(9.50839e-06 9.69761e-05 0.0140885)
(-9.50838e-06 9.69761e-05 0.0140885)
(-2.697e-05 9.09266e-05 0.0139739)
(-4.00187e-05 7.93486e-05 0.0137123)
(-4.55161e-05 6.42502e-05 0.0132423)
(-4.7855e-05 4.7855e-05 0.0124948)
(6.42502e-05 4.55161e-05 0.0132423)
(6.50045e-05 6.50045e-05 0.0139481)
(5.64468e-05 8.20132e-05 0.0143124)
(3.80608e-05 9.45709e-05 0.0144824)
(1.34048e-05 0.000101137 0.0145468)
(-1.34048e-05 0.000101137 0.0145468)
(-3.80608e-05 9.45708e-05 0.0144824)
(-5.64468e-05 8.20132e-05 0.0143124)
(-6.50045e-05 6.50045e-05 0.0139481)
(-6.42502e-05 4.55161e-05 0.0132423)
(7.93487e-05 4.00187e-05 0.0137123)
(8.20132e-05 5.64468e-05 0.0143124)
(7.1016e-05 7.1016e-05 0.0145653)
(4.77909e-05 8.16156e-05 0.0146531)
(1.68104e-05 8.7115e-05 0.014676)
(-1.68104e-05 8.7115e-05 0.014676)
(-4.77909e-05 8.16156e-05 0.0146531)
(-7.1016e-05 7.1016e-05 0.0145653)
(-8.20132e-05 5.64468e-05 0.0143124)
(-7.93486e-05 4.00187e-05 0.0137123)
(9.09266e-05 2.697e-05 0.0139739)
(9.45709e-05 3.80608e-05 0.0144824)
(8.16156e-05 4.77909e-05 0.0146531)
(5.4795e-05 5.4795e-05 0.0146869)
(1.92502e-05 5.84035e-05 0.0146845)
(-1.92502e-05 5.84035e-05 0.0146845)
(-5.4795e-05 5.4795e-05 0.0146869)
(-8.16156e-05 4.77909e-05 0.0146531)
(-9.45708e-05 3.80608e-05 0.0144824)
(-9.09266e-05 2.697e-05 0.0139739)
(9.69761e-05 9.50839e-06 0.0140885)
(0.000101137 1.34048e-05 0.0145468)
(8.7115e-05 1.68104e-05 0.014676)
(5.84035e-05 1.92502e-05 0.0146845)
(2.05026e-05 2.05026e-05 0.014671)
(-2.05026e-05 2.05026e-05 0.014671)
(-5.84035e-05 1.92502e-05 0.0146845)
(-8.7115e-05 1.68104e-05 0.014676)
(-0.000101137 1.34048e-05 0.0145468)
(-9.69761e-05 9.50839e-06 0.0140885)
(9.69761e-05 -9.50839e-06 0.0140885)
(0.000101137 -1.34048e-05 0.0145468)
(8.7115e-05 -1.68104e-05 0.014676)
(5.84035e-05 -1.92502e-05 0.0146845)
(2.05026e-05 -2.05026e-05 0.014671)
(-2.05026e-05 -2.05026e-05 0.014671)
(-5.84035e-05 -1.92502e-05 0.0146845)
(-8.7115e-05 -1.68104e-05 0.014676)
(-0.000101137 -1.34048e-05 0.0145468)
(-9.69761e-05 -9.50839e-06 0.0140885)
(9.09266e-05 -2.697e-05 0.0139739)
(9.45709e-05 -3.80608e-05 0.0144824)
(8.16156e-05 -4.77909e-05 0.0146531)
(5.4795e-05 -5.4795e-05 0.0146869)
(1.92502e-05 -5.84035e-05 0.0146845)
(-1.92502e-05 -5.84035e-05 0.0146845)
(-5.4795e-05 -5.4795e-05 0.0146869)
(-8.16156e-05 -4.77909e-05 0.0146531)
(-9.45708e-05 -3.80608e-05 0.0144824)
(-9.09266e-05 -2.697e-05 0.0139739)
(7.93486e-05 -4.00187e-05 0.0137123)
(8.20132e-05 -5.64468e-05 0.0143124)
(7.1016e-05 -7.1016e-05 0.0145653)
(4.77909e-05 -8.16156e-05 0.0146531)
(1.68104e-05 -8.7115e-05 0.014676)
(-1.68104e-05 -8.7115e-05 0.014676)
(-4.77909e-05 -8.16156e-05 0.0146531)
(-7.1016e-05 -7.1016e-05 0.0145653)
(-8.20132e-05 -5.64468e-05 0.0143124)
(-7.93486e-05 -4.00186e-05 0.0137123)
(6.42502e-05 -4.55161e-05 0.0132423)
(6.50045e-05 -6.50045e-05 0.0139481)
(5.64468e-05 -8.20132e-05 0.0143124)
(3.80608e-05 -9.45708e-05 0.0144824)
(1.34048e-05 -0.000101137 0.0145468)
(-1.34048e-05 -0.000101137 0.0145468)
(-3.80608e-05 -9.45708e-05 0.0144824)
(-5.64468e-05 -8.20132e-05 0.0143124)
(-6.50045e-05 -6.50045e-05 0.0139481)
(-6.42502e-05 -4.55161e-05 0.0132423)
(4.78551e-05 -4.78551e-05 0.0124948)
(4.55161e-05 -6.42502e-05 0.0132423)
(4.00187e-05 -7.93486e-05 0.0137123)
(2.697e-05 -9.09266e-05 0.0139739)
(9.50839e-06 -9.69761e-05 0.0140885)
(-9.50839e-06 -9.69761e-05 0.0140885)
(-2.697e-05 -9.09266e-05 0.0139739)
(-4.00187e-05 -7.93486e-05 0.0137123)
(-4.55161e-05 -6.42502e-05 0.0132423)
(-4.78551e-05 -4.78551e-05 0.0124948)
(1.80075e-05 1.80075e-05 0.0124602)
(1.79523e-05 2.5306e-05 0.0132155)
(1.6533e-05 3.2487e-05 0.0136962)
(1.14362e-05 3.82483e-05 0.0139675)
(4.09015e-06 4.13432e-05 0.0140878)
(-4.09014e-06 4.13432e-05 0.0140878)
(-1.14362e-05 3.82483e-05 0.0139675)
(-1.6533e-05 3.2487e-05 0.0136962)
(-1.79523e-05 2.5306e-05 0.0132155)
(-1.80075e-05 1.80075e-05 0.0124602)
(2.5306e-05 1.79523e-05 0.0132155)
(2.73839e-05 2.73839e-05 0.0139414)
(2.50244e-05 3.62458e-05 0.0143277)
(1.73969e-05 4.31446e-05 0.014516)
(6.22192e-06 4.68615e-05 0.0145906)
(-6.22191e-06 4.68615e-05 0.0145906)
(-1.73969e-05 4.31446e-05 0.014516)
(-2.50244e-05 3.62458e-05 0.0143277)
(-2.73839e-05 2.73839e-05 0.0139414)
(-2.5306e-05 1.79523e-05 0.0132155)
(3.2487e-05 1.6533e-05 0.0136962)
(3.62458e-05 2.50244e-05 0.0143277)
(3.31211e-05 3.31211e-05 0.0146129)
(2.30197e-05 3.93281e-05 0.014726)
(8.2243e-06 4.26426e-05 0.0147626)
(-8.2243e-06 4.26426e-05 0.0147626)
(-2.30197e-05 3.93281e-05 0.014726)
(-3.31211e-05 3.31211e-05 0.0146129)
(-3.62458e-05 2.50244e-05 0.0143277)
(-3.2487e-05 1.6533e-05 0.0136962)
(3.82483e-05 1.14362e-05 0.0139675)
(4.31446e-05 1.73969e-05 0.014516)
(3.93281e-05 2.30197e-05 0.014726)
(2.7279e-05 2.7279e-05 0.0147896)
(9.73232e-06 2.95345e-05 0.0148031)
(-9.73231e-06 2.95345e-05 0.0148031)
(-2.7279e-05 2.7279e-05 0.0147896)
(-3.93281e-05 2.30197e-05 0.014726)
(-4.31446e-05 1.73969e-05 0.014516)
(-3.82483e-05 1.14362e-05 0.0139675)
(4.13432e-05 4.09014e-06 0.0140878)
(4.68615e-05 6.22192e-06 0.0145906)
(4.26426e-05 8.2243e-06 0.0147626)
(2.95345e-05 9.73232e-06 0.0148031)
(1.05274e-05 1.05274e-05 0.0148063)
(-1.05274e-05 1.05274e-05 0.0148063)
(-2.95345e-05 9.73232e-06 0.0148031)
(-4.26426e-05 8.2243e-06 0.0147626)
(-4.68615e-05 6.22192e-06 0.0145906)
(-4.13432e-05 4.09015e-06 0.0140878)
(4.13432e-05 -4.09014e-06 0.0140878)
(4.68615e-05 -6.22192e-06 0.0145906)
(4.26426e-05 -8.2243e-06 0.0147626)
(2.95345e-05 -9.73232e-06 0.0148031)
(1.05274e-05 -1.05274e-05 0.0148063)
(-1.05274e-05 -1.05274e-05 0.0148063)
(-2.95345e-05 -9.73231e-06 0.0148031)
(-4.26426e-05 -8.2243e-06 0.0147626)
(-4.68615e-05 -6.22191e-06 0.0145906)
(-4.13432e-05 -4.09014e-06 0.0140878)
(3.82483e-05 -1.14362e-05 0.0139675)
(4.31446e-05 -1.73969e-05 0.014516)
(3.93281e-05 -2.30197e-05 0.014726)
(2.7279e-05 -2.7279e-05 0.0147896)
(9.73232e-06 -2.95345e-05 0.0148031)
(-9.73231e-06 -2.95345e-05 0.0148031)
(-2.7279e-05 -2.7279e-05 0.0147896)
(-3.93281e-05 -2.30197e-05 0.014726)
(-4.31446e-05 -1.73969e-05 0.014516)
(-3.82483e-05 -1.14362e-05 0.0139675)
(3.2487e-05 -1.6533e-05 0.0136962)
(3.62458e-05 -2.50244e-05 0.0143277)
(3.31211e-05 -3.31211e-05 0.0146129)
(2.30197e-05 -3.93281e-05 0.014726)
(8.22431e-06 -4.26426e-05 0.0147626)
(-8.22429e-06 -4.26426e-05 0.0147626)
(-2.30197e-05 -3.93281e-05 0.014726)
(-3.31211e-05 -3.31211e-05 0.0146129)
(-3.62458e-05 -2.50244e-05 0.0143277)
(-3.2487e-05 -1.6533e-05 0.0136962)
(2.5306e-05 -1.79523e-05 0.0132155)
(2.73839e-05 -2.73839e-05 0.0139414)
(2.50244e-05 -3.62458e-05 0.0143277)
(1.73969e-05 -4.31446e-05 0.014516)
(6.22192e-06 -4.68615e-05 0.0145906)
(-6.22191e-06 -4.68615e-05 0.0145906)
(-1.73969e-05 -4.31446e-05 0.014516)
(-2.50244e-05 -3.62458e-05 0.0143277)
(-2.73839e-05 -2.73839e-05 0.0139414)
(-2.5306e-05 -1.79523e-05 0.0132155)
(1.80075e-05 -1.80075e-05 0.0124602)
(1.79523e-05 -2.5306e-05 0.0132155)
(1.6533e-05 -3.2487e-05 0.0136962)
(1.14362e-05 -3.82483e-05 0.0139675)
(4.09015e-06 -4.13432e-05 0.0140878)