/*--------------------------------*- C++ -*----------------------------------*\
| =========                 |                                                 |
| \\      /  F ield         | OpenFOAM: The Open Source CFD Toolbox           |
|  \\    /   O peration     | Version:  2412                                  |
|   \\  /    A nd           | Website:  www.openfoam.com                      |
|    \\/     M anipulation  |                                                 |
\*---------------------------------------------------------------------------*/
FoamFile
{
    version     2.0;
    format      ascii;
    arch        "LSB;label=32;scalar=64";
    class       surfaceScalarField;
    location    "5.9";
    object      phi;
}
// * * * * * * * * * * * * * * * * * * * * * * * * * * * * * * * * * * * * * //

dimensions      [0 3 -1 0 0 0 0];

oriented        oriented;

internalField   nonuniform List<scalar> 
43700
(
1.86691e-07
1.86691e-07
5.49766e-07
-2.26564e-07
-2.26564e-07
1.38361e-07
1.66037e-07
5.94174e-07
-2.02498e-07
9.17288e-08
1.52609e-07
6.25763e-07
-1.92309e-07
4.55396e-08
1.43593e-07
6.46033e-07
-1.83725e-07
-7.39905e-17
1.39234e-07
6.55983e-07
-1.79749e-07
-4.55396e-08
1.39234e-07
6.55983e-07
-1.79749e-07
-9.17288e-08
1.43593e-07
6.46033e-07
-1.83725e-07
-1.38361e-07
1.52609e-07
6.25763e-07
-1.92309e-07
-1.86691e-07
1.66037e-07
5.94174e-07
-2.02498e-07
1.86691e-07
5.49766e-07
-2.26565e-07
-2.26565e-07
1.66037e-07
1.38361e-07
5.94174e-07
-2.02498e-07
1.23585e-07
1.23585e-07
6.30746e-07
8.14128e-08
1.12227e-07
6.56245e-07
4.02978e-08
1.04587e-07
6.72618e-07
3.90161e-17
1.00832e-07
6.80671e-07
-4.02978e-08
1.00832e-07
6.80671e-07
-8.14128e-08
1.04587e-07
6.72618e-07
-1.23585e-07
1.12227e-07
6.56245e-07
-1.66037e-07
1.23585e-07
6.30746e-07
1.38361e-07
5.94174e-07
-2.02498e-07
1.52609e-07
9.17288e-08
6.25763e-07
-1.92309e-07
1.12227e-07
8.14128e-08
6.56245e-07
7.33833e-08
7.33833e-08
6.77561e-07
3.61918e-08
6.79774e-08
6.91364e-07
-1.18102e-16
6.53085e-08
6.98194e-07
-3.61918e-08
6.53085e-08
6.98194e-07
-7.33833e-08
6.79774e-08
6.91364e-07
-1.12227e-07
7.33833e-08
6.77561e-07
-1.52609e-07
8.14128e-08
6.56245e-07
9.17288e-08
6.25763e-07
-1.92309e-07
1.43593e-07
4.55396e-08
6.46033e-07
-1.83725e-07
1.04587e-07
4.02978e-08
6.72618e-07
6.79774e-08
3.61918e-08
6.91364e-07
3.34179e-08
3.34179e-08
7.03622e-07
-7.35186e-17
3.20451e-08
7.09723e-07
-3.34179e-08
3.20451e-08
7.09723e-07
-6.79774e-08
3.34179e-08
7.03622e-07
-1.04587e-07
3.61918e-08
6.91364e-07
-1.43593e-07
4.02978e-08
6.72618e-07
4.55396e-08
6.46033e-07
-1.83725e-07
1.39234e-07
-8.43129e-16
6.55983e-07
-1.79749e-07
1.00832e-07
2.09875e-16
6.80671e-07
6.53085e-08
2.12475e-16
6.98194e-07
3.20451e-08
-6.31314e-17
7.09723e-07
1.51289e-16
1.15506e-16
7.15483e-07
-3.20451e-08
-1.05395e-16
7.15483e-07
-6.53085e-08
-2.24688e-16
7.09723e-07
-1.00832e-07
1.54038e-17
6.98194e-07
-1.39234e-07
-1.9726e-17
6.80671e-07
-4.08425e-16
6.55983e-07
-1.79749e-07
1.39234e-07
-4.55396e-08
6.55983e-07
-1.79749e-07
1.00832e-07
-4.02978e-08
6.80671e-07
6.53085e-08
-3.61918e-08
6.98194e-07
3.20451e-08
-3.34179e-08
7.09723e-07
-2.30292e-16
-3.20451e-08
7.15483e-07
-3.20451e-08
-3.20451e-08
7.15483e-07
-6.53085e-08
-3.34179e-08
7.09723e-07
-1.00832e-07
-3.61918e-08
6.98194e-07
-1.39234e-07
-4.02978e-08
6.80671e-07
-4.55396e-08
6.55983e-07
-1.79749e-07
1.43593e-07
-9.17288e-08
6.46033e-07
-1.83725e-07
1.04587e-07
-8.14128e-08
6.72618e-07
6.79774e-08
-7.33833e-08
6.91364e-07
3.34179e-08
-6.79774e-08
7.03622e-07
6.05418e-17
-6.53085e-08
7.09723e-07
-3.34179e-08
-6.53085e-08
7.09723e-07
-6.79774e-08
-6.79774e-08
7.03622e-07
-1.04587e-07
-7.33833e-08
6.91364e-07
-1.43593e-07
-8.14128e-08
6.72618e-07
-9.17288e-08
6.46033e-07
-1.83725e-07
1.52609e-07
-1.38361e-07
6.25763e-07
-1.92309e-07
1.12227e-07
-1.23585e-07
6.56245e-07
7.33833e-08
-1.12227e-07
6.77561e-07
3.61918e-08
-1.04587e-07
6.91364e-07
3.60782e-16
-1.00832e-07
6.98194e-07
-3.61918e-08
-1.00832e-07
6.98194e-07
-7.33833e-08
-1.04587e-07
6.91364e-07
-1.12227e-07
-1.12227e-07
6.77561e-07
-1.52609e-07
-1.23585e-07
6.56245e-07
-1.38361e-07
6.25763e-07
-1.92309e-07
1.66037e-07
-1.86691e-07
5.94174e-07
-2.02498e-07
1.23585e-07
-1.66037e-07
6.30746e-07
8.14128e-08
-1.52609e-07
6.56245e-07
4.02978e-08
-1.43593e-07
6.72618e-07
2.2497e-16
-1.39234e-07
6.80671e-07
-4.02978e-08
-1.39234e-07
6.80671e-07
-8.14128e-08
-1.43593e-07
6.72618e-07
-1.23585e-07
-1.52609e-07
6.56245e-07
-1.66037e-07
-1.66037e-07
6.30746e-07
-1.86691e-07
5.94174e-07
-2.02498e-07
1.86691e-07
5.49766e-07
-2.26565e-07
-2.26565e-07
1.38361e-07
5.94174e-07
-2.02498e-07
9.17288e-08
6.25763e-07
-1.92309e-07
4.55396e-08
6.46033e-07
-1.83725e-07
-3.12406e-16
6.55983e-07
-1.79749e-07
-4.55396e-08
6.55983e-07
-1.79749e-07
-9.17288e-08
6.46033e-07
-1.83725e-07
-1.38361e-07
6.25763e-07
-1.92309e-07
-1.86691e-07
5.94174e-07
-2.02498e-07
5.49766e-07
-2.26565e-07
-2.26565e-07
1.19805e-07
1.19805e-07
5.85406e-07
-1.37624e-07
-1.37624e-07
9.40539e-08
1.17306e-07
6.40122e-07
-1.37503e-07
6.42373e-08
1.14122e-07
6.77766e-07
-1.36309e-07
3.24422e-08
1.1122e-07
7.01101e-07
-1.34493e-07
-3.96616e-16
1.09746e-07
7.12291e-07
-1.33612e-07
-3.24423e-08
1.09746e-07
7.12291e-07
-1.33612e-07
-6.42373e-08
1.1122e-07
7.01101e-07
-1.34493e-07
-9.40539e-08
1.14122e-07
6.77766e-07
-1.36309e-07
-1.19805e-07
1.17306e-07
6.40122e-07
-1.37503e-07
1.19805e-07
5.85406e-07
-1.37624e-07
-1.37624e-07
1.17306e-07
9.40539e-08
6.40122e-07
-1.37503e-07
9.05211e-08
9.05211e-08
6.84316e-07
6.11049e-08
8.68688e-08
7.12914e-07
3.06715e-08
8.40002e-08
7.30271e-07
-1.02694e-17
8.25422e-08
7.38547e-07
-3.06715e-08
8.25422e-08
7.38547e-07
-6.11049e-08
8.40002e-08
7.30271e-07
-9.05211e-08
8.68688e-08
7.12914e-07
-1.17306e-07
9.05211e-08
6.84316e-07
9.40539e-08
6.40122e-07
-1.37503e-07
1.14122e-07
6.42373e-08
6.77766e-07
-1.36309e-07
8.68688e-08
6.11049e-08
7.12914e-07
5.81394e-08
5.81394e-08
7.3502e-07
2.90728e-08
5.59696e-08
7.48461e-07
1.3453e-16
5.48784e-08
7.5493e-07
-2.90728e-08
5.48784e-08
7.5493e-07
-5.81394e-08
5.59696e-08
7.48461e-07
-8.68688e-08
5.81394e-08
7.3502e-07
-1.14122e-07
6.11049e-08
7.12914e-07
6.42373e-08
6.77766e-07
-1.36309e-07
1.1122e-07
3.24423e-08
7.01101e-07
-1.34493e-07
8.40002e-08
3.06715e-08
7.30271e-07
5.59696e-08
2.90728e-08
7.48461e-07
2.79367e-08
2.79367e-08
7.59687e-07
3.86489e-16
2.73685e-08
7.6517e-07
-2.79367e-08
2.73685e-08
7.6517e-07
-5.59696e-08
2.79367e-08
7.59687e-07
-8.40002e-08
2.90728e-08
7.48461e-07
-1.1122e-07
3.06715e-08
7.30271e-07
3.24423e-08
7.01101e-07
-1.34493e-07
1.09746e-07
2.51365e-16
7.12291e-07
-1.33612e-07
8.25422e-08
7.43245e-16
7.38547e-07
5.48784e-08
4.43261e-16
7.5493e-07
2.73685e-08
3.20411e-16
7.6517e-07
6.10324e-16
4.18558e-16
7.7022e-07
-2.73685e-08
5.2818e-16
7.7022e-07
-5.48784e-08
3.03691e-16
7.6517e-07
-8.25422e-08
-1.63239e-16
7.5493e-07
-1.09746e-07
-2.55146e-16
7.38547e-07
-1.50822e-16
7.12291e-07
-1.33612e-07
1.09746e-07
-3.24423e-08
7.12291e-07
-1.33612e-07
8.25422e-08
-3.06715e-08
7.38547e-07
5.48784e-08
-2.90728e-08
7.5493e-07
2.73685e-08
-2.79367e-08
7.6517e-07
5.05811e-16
-2.73685e-08
7.7022e-07
-2.73685e-08
-2.73685e-08
7.7022e-07
-5.48784e-08
-2.79367e-08
7.6517e-07
-8.25422e-08
-2.90728e-08
7.5493e-07
-1.09746e-07
-3.06715e-08
7.38547e-07
-3.24423e-08
7.12291e-07
-1.33612e-07
1.1122e-07
-6.42373e-08
7.01101e-07
-1.34493e-07
8.40002e-08
-6.11049e-08
7.30271e-07
5.59696e-08
-5.81394e-08
7.48461e-07
2.79367e-08
-5.59696e-08
7.59687e-07
6.67725e-16
-5.48784e-08
7.6517e-07
-2.79367e-08
-5.48784e-08
7.6517e-07
-5.59696e-08
-5.59696e-08
7.59687e-07
-8.40002e-08
-5.81394e-08
7.48461e-07
-1.1122e-07
-6.11049e-08
7.30271e-07
-6.42373e-08
7.01101e-07
-1.34493e-07
1.14122e-07
-9.40539e-08
6.77766e-07
-1.36309e-07
8.68688e-08
-9.05211e-08
7.12914e-07
5.81394e-08
-8.68688e-08
7.3502e-07
2.90728e-08
-8.40002e-08
7.48461e-07
7.73232e-16
-8.25422e-08
7.5493e-07
-2.90728e-08
-8.25422e-08
7.5493e-07
-5.81394e-08
-8.40002e-08
7.48461e-07
-8.68688e-08
-8.68688e-08
7.3502e-07
-1.14122e-07
-9.05211e-08
7.12914e-07
-9.40539e-08
6.77766e-07
-1.36309e-07
1.17306e-07
-1.19805e-07
6.40122e-07
-1.37503e-07
9.05211e-08
-1.17306e-07
6.84316e-07
6.11049e-08
-1.14122e-07
7.12914e-07
3.06715e-08
-1.1122e-07
7.30271e-07
7.18761e-16
-1.09746e-07
7.38547e-07
-3.06715e-08
-1.09746e-07
7.38547e-07
-6.11049e-08
-1.1122e-07
7.30271e-07
-9.05211e-08
-1.14122e-07
7.12914e-07
-1.17306e-07
-1.17306e-07
6.84316e-07
-1.19805e-07
6.40122e-07
-1.37503e-07
1.19805e-07
5.85406e-07
-1.37624e-07
-1.37624e-07
9.40539e-08
6.40122e-07
-1.37503e-07
6.42373e-08
6.77766e-07
-1.36309e-07
3.24423e-08
7.01101e-07
-1.34493e-07
2.24884e-16
7.12291e-07
-1.33612e-07
-3.24423e-08
7.12291e-07
-1.33612e-07
-6.42373e-08
7.01101e-07
-1.34493e-07
-9.40539e-08
6.77766e-07
-1.36309e-07
-1.19805e-07
6.40122e-07
-1.37503e-07
5.85406e-07
-1.37624e-07
-1.37624e-07
8.23087e-08
8.23087e-08
5.94929e-07
-8.70701e-08
-8.70701e-08
6.8863e-08
8.66297e-08
6.59721e-07
-9.27823e-08
4.9056e-08
8.84867e-08
7.04625e-07
-9.55384e-08
2.54171e-08
8.89644e-08
7.32531e-07
-9.67563e-08
-1.13264e-15
8.90833e-08
7.45902e-07
-9.7277e-08
-2.54171e-08
8.90833e-08
7.45902e-07
-9.7277e-08
-4.9056e-08
8.89644e-08
7.32531e-07
-9.67563e-08
-6.8863e-08
8.84867e-08
7.04625e-07
-9.55384e-08
-8.23087e-08
8.66297e-08
6.59721e-07
-9.27823e-08
8.23087e-08
5.94929e-07
-8.70701e-08
-8.70701e-08
8.66297e-08
6.8863e-08
6.59721e-07
-9.27823e-08
7.15851e-08
7.15851e-08
7.14405e-07
5.06764e-08
7.25497e-08
7.4976e-07
2.61701e-08
7.2614e-08
7.71128e-07
8.84409e-16
7.25301e-08
7.8127e-07
-2.617e-08
7.25301e-08
7.8127e-07
-5.06764e-08
7.2614e-08
7.71128e-07
-7.15851e-08
7.25497e-08
7.4976e-07
-8.66297e-08
7.15851e-08
7.14405e-07
6.8863e-08
6.59721e-07
-9.27823e-08
8.84867e-08
4.9056e-08
7.04625e-07
-9.55384e-08
7.25497e-08
5.06764e-08
7.4976e-07
5.11148e-08
5.11148e-08
7.77889e-07
2.63432e-08
5.10316e-08
7.94815e-07
9.18779e-16
5.09044e-08
8.02899e-07
-2.63432e-08
5.09044e-08
8.02899e-07
-5.11148e-08
5.10316e-08
7.94815e-07
-7.25497e-08
5.11148e-08
7.77889e-07
-8.84867e-08
5.06764e-08
7.4976e-07
4.9056e-08
7.04625e-07
-9.55384e-08
8.89644e-08
2.54171e-08
7.32531e-07
-9.67563e-08
7.2614e-08
2.61701e-08
7.71128e-07
5.10316e-08
2.63432e-08
7.94815e-07
2.62741e-08
2.62741e-08
8.09202e-07
9.61314e-16
2.61943e-08
8.16154e-07
-2.62741e-08
2.61943e-08
8.16154e-07
-5.10316e-08
2.62741e-08
8.09202e-07
-7.2614e-08
2.63432e-08
7.94815e-07
-8.89644e-08
2.617e-08
7.71128e-07
2.54171e-08
7.32531e-07
-9.67563e-08
8.90833e-08
-1.94651e-16
7.45902e-07
-9.7277e-08
7.25301e-08
1.89851e-15
7.8127e-07
5.09044e-08
1.50273e-15
8.02899e-07
2.61943e-08
1.21172e-15
8.16154e-07
8.6504e-16
1.13802e-15
8.22608e-07
-2.61943e-08
1.08246e-15
8.22608e-07
-5.09044e-08
7.99851e-16
8.16154e-07
-7.25301e-08
-1.79281e-16
8.02899e-07
-8.90833e-08
-1.74202e-15
7.8127e-07
-1.33362e-15
7.45902e-07
-9.7277e-08
8.90833e-08
-2.54171e-08
7.45902e-07
-9.7277e-08
7.25301e-08
-2.617e-08
7.8127e-07
5.09044e-08
-2.63432e-08
8.02899e-07
2.61943e-08
-2.62741e-08
8.16154e-07
7.37787e-16
-2.61943e-08
8.22608e-07
-2.61943e-08
-2.61943e-08
8.22608e-07
-5.09044e-08
-2.62741e-08
8.16154e-07
-7.25301e-08
-2.63432e-08
8.02899e-07
-8.90833e-08
-2.61701e-08
7.8127e-07
-2.54171e-08
7.45902e-07
-9.7277e-08
8.89644e-08
-4.9056e-08
7.32531e-07
-9.67563e-08
7.2614e-08
-5.06764e-08
7.71128e-07
5.10316e-08
-5.11148e-08
7.94815e-07
2.62741e-08
-5.10316e-08
8.09202e-07
5.04711e-16
-5.09044e-08
8.16154e-07
-2.62741e-08
-5.09044e-08
8.16154e-07
-5.10316e-08
-5.10316e-08
8.09202e-07
-7.2614e-08
-5.11148e-08
7.94815e-07
-8.89644e-08
-5.06764e-08
7.71128e-07
-4.9056e-08
7.32531e-07
-9.67563e-08
8.84867e-08
-6.8863e-08
7.04625e-07
-9.55384e-08
7.25497e-08
-7.15851e-08
7.4976e-07
5.11148e-08
-7.25497e-08
7.77889e-07
2.63432e-08
-7.2614e-08
7.94815e-07
-1.60999e-16
-7.25301e-08
8.02899e-07
-2.63432e-08
-7.25301e-08
8.02899e-07
-5.11148e-08
-7.2614e-08
7.94815e-07
-7.25497e-08
-7.25497e-08
7.77889e-07
-8.84867e-08
-7.15851e-08
7.4976e-07
-6.8863e-08
7.04625e-07
-9.55384e-08
8.66297e-08
-8.23087e-08
6.59721e-07
-9.27823e-08
7.15851e-08
-8.66297e-08
7.14405e-07
5.06764e-08
-8.84867e-08
7.4976e-07
2.617e-08
-8.89644e-08
7.71128e-07
-1.11338e-15
-8.90833e-08
7.8127e-07
-2.61701e-08
-8.90833e-08
7.8127e-07
-5.06764e-08
-8.89644e-08
7.71128e-07
-7.15851e-08
-8.84867e-08
7.4976e-07
-8.66297e-08
-8.66297e-08
7.14405e-07
-8.23087e-08
6.59721e-07
-9.27823e-08
8.23087e-08
5.94929e-07
-8.70701e-08
-8.70701e-08
6.8863e-08
6.59721e-07
-9.27823e-08
4.9056e-08
7.04625e-07
-9.55384e-08
2.54171e-08
7.32531e-07
-9.67563e-08
-1.04979e-15
7.45902e-07
-9.7277e-08
-2.54171e-08
7.45902e-07
-9.7277e-08
-4.9056e-08
7.32531e-07
-9.67563e-08
-6.8863e-08
7.04625e-07
-9.55384e-08
-8.23087e-08
6.59721e-07
-9.27823e-08
5.94929e-07
-8.70701e-08
-8.70701e-08
3.45289e-08
3.45289e-08
5.9413e-07
-3.41296e-08
-3.41296e-08
3.07919e-08
3.97995e-08
6.63097e-07
-3.94387e-08
2.2885e-08
4.32122e-08
7.11809e-07
-4.24886e-08
1.21748e-08
4.51892e-08
7.42506e-07
-4.44535e-08
-3.52942e-16
4.61124e-08
7.5733e-07
-4.53656e-08
-1.21748e-08
4.61124e-08
7.5733e-07
-4.53656e-08
-2.2885e-08
4.51892e-08
7.42506e-07
-4.44535e-08
-3.0792e-08
4.32122e-08
7.11809e-07
-4.24886e-08
-3.45289e-08
3.97995e-08
6.63097e-07
-3.94387e-08
3.45289e-08
5.9413e-07
-3.41296e-08
-3.41296e-08
3.97995e-08
3.0792e-08
6.63097e-07
-3.94387e-08
3.51248e-08
3.51248e-08
7.23754e-07
2.60382e-08
3.80376e-08
7.64021e-07
1.38196e-08
3.97092e-08
7.88827e-07
1.40689e-15
4.04745e-08
8.00728e-07
-1.38196e-08
4.04745e-08
8.00728e-07
-2.60382e-08
3.97092e-08
7.88827e-07
-3.51248e-08
3.80376e-08
7.64021e-07
-3.97995e-08
3.51248e-08
7.23754e-07
3.07919e-08
6.63097e-07
-3.94387e-08
4.32122e-08
2.2885e-08
7.11809e-07
-4.24886e-08
3.80376e-08
2.60382e-08
7.64021e-07
2.81264e-08
2.81264e-08
7.97712e-07
1.49065e-08
2.93153e-08
8.18429e-07
1.33823e-15
2.98504e-08
8.2843e-07
-1.49065e-08
2.98504e-08
8.2843e-07
-2.81264e-08
2.93153e-08
8.18429e-07
-3.80376e-08
2.81264e-08
7.97712e-07
-4.32122e-08
2.60382e-08
7.64021e-07
2.2885e-08
7.11809e-07
-4.24886e-08
4.51892e-08
1.21748e-08
7.42506e-07
-4.44535e-08
3.97092e-08
1.38196e-08
7.88827e-07
2.93153e-08
1.49065e-08
8.18429e-07
1.55228e-08
1.55228e-08
8.36787e-07
1.10693e-15
1.57974e-08
8.4573e-07
-1.55228e-08
1.57974e-08
8.4573e-07
-2.93153e-08
1.55228e-08
8.36787e-07
-3.97092e-08
1.49065e-08
8.18429e-07
-4.51892e-08
1.38196e-08
7.88827e-07
1.21748e-08
7.42506e-07
-4.44535e-08
4.61124e-08
5.60355e-16
7.5733e-07
-4.53656e-08
4.04745e-08
2.21263e-15
8.00728e-07
2.98504e-08
1.38619e-15
8.2843e-07
1.57974e-08
8.93628e-16
8.4573e-07
1.07541e-15
1.04565e-15
8.54203e-07
-1.57974e-08
1.29392e-15
8.54203e-07
-2.98504e-08
1.19613e-15
8.4573e-07
-4.04745e-08
1.19689e-16
8.2843e-07
-4.61124e-08
-2.09027e-15
8.00728e-07
-2.15497e-15
7.5733e-07
-4.53656e-08
4.61124e-08
-1.21748e-08
7.5733e-07
-4.53656e-08
4.04745e-08
-1.38196e-08
8.00728e-07
2.98504e-08
-1.49065e-08
8.2843e-07
1.57974e-08
-1.55228e-08
8.4573e-07
1.34795e-15
-1.57974e-08
8.54203e-07
-1.57974e-08
-1.57974e-08
8.54203e-07
-2.98504e-08
-1.55228e-08
8.4573e-07
-4.04745e-08
-1.49065e-08
8.2843e-07
-4.61124e-08
-1.38196e-08
8.00728e-07
-1.21748e-08
7.5733e-07
-4.53656e-08
4.51892e-08
-2.2885e-08
7.42506e-07
-4.44535e-08
3.97092e-08
-2.60382e-08
7.88827e-07
2.93153e-08
-2.81264e-08
8.18429e-07
1.55228e-08
-2.93153e-08
8.36787e-07
1.35686e-15
-2.98504e-08
8.4573e-07
-1.55228e-08
-2.98504e-08
8.4573e-07
-2.93153e-08
-2.93153e-08
8.36787e-07
-3.97092e-08
-2.81264e-08
8.18429e-07
-4.51892e-08
-2.60382e-08
7.88827e-07
-2.2885e-08
7.42506e-07
-4.44535e-08
4.32122e-08
-3.0792e-08
7.11809e-07
-4.24886e-08
3.80376e-08
-3.51248e-08
7.64021e-07
2.81264e-08
-3.80376e-08
7.97712e-07
1.49065e-08
-3.97092e-08
8.18429e-07
5.76311e-16
-4.04745e-08
8.2843e-07
-1.49065e-08
-4.04745e-08
8.2843e-07
-2.81264e-08
-3.97092e-08
8.18429e-07
-3.80376e-08
-3.80376e-08
7.97712e-07
-4.32122e-08
-3.51248e-08
7.64021e-07
-3.0792e-08
7.11809e-07
-4.24886e-08
3.97995e-08
-3.45289e-08
6.63097e-07
-3.94387e-08
3.51248e-08
-3.97995e-08
7.23754e-07
2.60382e-08
-4.32122e-08
7.64021e-07
1.38196e-08
-4.51892e-08
7.88827e-07
-1.33643e-15
-4.61124e-08
8.00728e-07
-1.38196e-08
-4.61124e-08
8.00728e-07
-2.60382e-08
-4.51892e-08
7.88827e-07
-3.51248e-08
-4.32122e-08
7.64021e-07
-3.97995e-08
-3.97995e-08
7.23754e-07
-3.45289e-08
6.63097e-07
-3.94387e-08
3.45289e-08
5.9413e-07
-3.41296e-08
-3.41296e-08
3.0792e-08
6.63097e-07
-3.94387e-08
2.2885e-08
7.11809e-07
-4.24886e-08
1.21748e-08
7.42506e-07
-4.44535e-08
-1.83545e-15
7.5733e-07
-4.53656e-08
-1.21748e-08
7.5733e-07
-4.53656e-08
-2.2885e-08
7.42506e-07
-4.44535e-08
-3.0792e-08
7.11809e-07
-4.24886e-08
-3.45289e-08
6.63097e-07
-3.94387e-08
5.9413e-07
-3.41296e-08
-3.41296e-08
1.45177e-08
1.45177e-08
5.92193e-07
-1.35492e-08
-1.35492e-08
1.34339e-08
1.74615e-08
6.62855e-07
-1.61361e-08
1.02587e-08
1.95565e-08
7.1329e-07
-1.78632e-08
5.5476e-09
2.08892e-08
7.45356e-07
-1.90286e-08
-8.69555e-18
2.15291e-08
7.60927e-07
-1.95779e-08
-5.5476e-09
2.15291e-08
7.60927e-07
-1.95779e-08
-1.02587e-08
2.08892e-08
7.45356e-07
-1.90286e-08
-1.34339e-08
1.95565e-08
7.1329e-07
-1.78632e-08
-1.45177e-08
1.74615e-08
6.62855e-07
-1.61361e-08
1.45177e-08
5.92193e-07
-1.35492e-08
-1.35492e-08
1.74615e-08
1.34339e-08
6.62855e-07
-1.61361e-08
1.61467e-08
1.61467e-08
7.26384e-07
1.23374e-08
1.8111e-08
7.69276e-07
6.66398e-09
1.93301e-08
7.96059e-07
1.59812e-15
1.99102e-08
8.09011e-07
-6.66398e-09
1.99102e-08
8.09011e-07
-1.23374e-08
1.93301e-08
7.96059e-07
-1.61467e-08
1.8111e-08
7.69276e-07
-1.74615e-08
1.61467e-08
7.26384e-07
1.34339e-08
6.62855e-07
-1.61361e-08
1.95565e-08
1.02587e-08
7.1329e-07
-1.78632e-08
1.8111e-08
1.23374e-08
7.69276e-07
1.38318e-08
1.38318e-08
8.0627e-07
7.46289e-09
1.47437e-08
8.29384e-07
1.40391e-15
1.51713e-08
8.40632e-07
-7.46289e-09
1.51713e-08
8.40632e-07
-1.38318e-08
1.47437e-08
8.29384e-07
-1.8111e-08
1.38318e-08
8.0627e-07
-1.95565e-08
1.23374e-08
7.69276e-07
1.02587e-08
7.1329e-07
-1.78632e-08
2.08892e-08
5.5476e-09
7.45356e-07
-1.90286e-08
1.93301e-08
6.66398e-09
7.96059e-07
1.47437e-08
7.46289e-09
8.29384e-07
7.94726e-09
7.94726e-09
8.5038e-07
9.79454e-16
8.17254e-09
8.60676e-07
-7.94725e-09
8.17254e-09
8.60676e-07
-1.47437e-08
7.94726e-09
8.5038e-07
-1.93301e-08
7.46289e-09
8.29384e-07
-2.08892e-08
6.66398e-09
7.96059e-07
5.5476e-09
7.45356e-07
-1.90286e-08
2.15291e-08
6.6035e-16
7.60927e-07
-1.95779e-08
1.99102e-08
2.12308e-15
8.09011e-07
1.51713e-08
1.77049e-15
8.40632e-07
8.17253e-09
1.17726e-15
8.60676e-07
8.28955e-16
1.11975e-15
8.70548e-07
-8.17253e-09
1.16071e-15
8.70548e-07
-1.51713e-08
1.00702e-15
8.60676e-07
-1.99102e-08
1.07198e-16
8.40632e-07
-2.15291e-08
-1.1457e-15
8.09011e-07
-7.50866e-16
7.60927e-07
-1.95779e-08
2.15291e-08
-5.5476e-09
7.60927e-07
-1.95779e-08
1.99102e-08
-6.66398e-09
8.09011e-07
1.51713e-08
-7.46289e-09
8.40632e-07
8.17253e-09
-7.94725e-09
8.60676e-07
9.10246e-16
-8.17253e-09
8.70548e-07
-8.17253e-09
-8.17253e-09
8.70548e-07
-1.51713e-08
-7.94725e-09
8.60676e-07
-1.99102e-08
-7.46289e-09
8.40632e-07
-2.15291e-08
-6.66398e-09
8.09011e-07
-5.5476e-09
7.60927e-07
-1.95779e-08
2.08892e-08
-1.02587e-08
7.45356e-07
-1.90286e-08
1.93301e-08
-1.23374e-08
7.96059e-07
1.47437e-08
-1.38318e-08
8.29384e-07
7.94726e-09
-1.47437e-08
8.5038e-07
7.41779e-16
-1.51713e-08
8.60676e-07
-7.94725e-09
-1.51713e-08
8.60676e-07
-1.47437e-08
-1.47437e-08
8.5038e-07
-1.93301e-08
-1.38318e-08
8.29384e-07
-2.08892e-08
-1.23374e-08
7.96059e-07
-1.02587e-08
7.45356e-07
-1.90286e-08
1.95565e-08
-1.34339e-08
7.1329e-07
-1.78632e-08
1.8111e-08
-1.61467e-08
7.69276e-07
1.38318e-08
-1.8111e-08
8.0627e-07
7.46289e-09
-1.93301e-08
8.29384e-07
-1.07751e-17
-1.99102e-08
8.40632e-07
-7.46289e-09
-1.99102e-08
8.40632e-07
-1.38318e-08
-1.93301e-08
8.29384e-07
-1.8111e-08
-1.8111e-08
8.0627e-07
-1.95565e-08
-1.61467e-08
7.69276e-07
-1.34339e-08
7.1329e-07
-1.78632e-08
1.74615e-08
-1.45177e-08
6.62855e-07
-1.61361e-08
1.61467e-08
-1.74615e-08
7.26384e-07
1.23374e-08
-1.95565e-08
7.69276e-07
6.66398e-09
-2.08892e-08
7.96059e-07
-7.10643e-16
-2.15291e-08
8.09011e-07
-6.66398e-09
-2.15291e-08
8.09011e-07
-1.23374e-08
-2.08892e-08
7.96059e-07
-1.61467e-08
-1.95565e-08
7.69276e-07
-1.74615e-08
-1.74615e-08
7.26384e-07
-1.45177e-08
6.62855e-07
-1.61361e-08
1.45177e-08
5.92193e-07
-1.35492e-08
-1.35492e-08
1.34339e-08
6.62855e-07
-1.61361e-08
1.02587e-08
7.1329e-07
-1.78632e-08
5.5476e-09
7.45356e-07
-1.90286e-08
-4.58112e-16
7.60927e-07
-1.95779e-08
-5.5476e-09
7.60927e-07
-1.95779e-08
-1.02587e-08
7.45356e-07
-1.90286e-08
-1.34339e-08
7.1329e-07
-1.78632e-08
-1.45177e-08
6.62855e-07
-1.61361e-08
5.92193e-07
-1.35492e-08
-1.35492e-08
4.99837e-09
4.99837e-09
5.90685e-07
-4.24458e-09
-4.24458e-09
4.94455e-09
6.53311e-09
6.61836e-07
-5.46057e-09
3.94362e-09
7.70325e-09
7.12929e-07
-6.34053e-09
2.18713e-09
8.4922e-09
7.45589e-07
-6.9687e-09
2.76588e-16
8.88009e-09
7.61504e-07
-7.27069e-09
-2.18713e-09
8.8801e-09
7.61504e-07
-7.27069e-09
-3.94362e-09
8.4922e-09
7.45589e-07
-6.9687e-09
-4.94455e-09
7.70325e-09
7.12929e-07
-6.34052e-09
-4.99837e-09
6.53311e-09
6.61836e-07
-5.46057e-09
4.99837e-09
5.90685e-07
-4.24458e-09
-4.24458e-09
6.53311e-09
4.94455e-09
6.61836e-07
-5.46057e-09
6.45866e-09
6.45867e-09
7.26533e-07
5.14493e-09
7.62227e-09
7.70671e-07
2.84439e-09
8.38282e-09
7.98469e-07
6.75255e-16
8.75419e-09
8.11981e-07
-2.84439e-09
8.75419e-09
8.11981e-07
-5.14493e-09
8.38282e-09
7.98469e-07
-6.45866e-09
7.62227e-09
7.70671e-07
-6.53311e-09
6.45866e-09
7.26533e-07
4.94455e-09
6.61836e-07
-5.46057e-09
7.70325e-09
3.94362e-09
7.12929e-07
-6.34052e-09
7.62227e-09
5.14493e-09
7.70671e-07
6.06061e-09
6.06061e-09
8.09393e-07
3.34213e-09
6.64699e-09
8.33838e-07
5.12607e-16
6.92959e-09
8.45798e-07
-3.34213e-09
6.92959e-09
8.45798e-07
-6.06061e-09
6.64699e-09
8.33838e-07
-7.62227e-09
6.06061e-09
8.09393e-07
-7.70325e-09
5.14493e-09
7.70671e-07
3.94362e-09
7.12929e-07
-6.34052e-09
8.4922e-09
2.18713e-09
7.45589e-07
-6.9687e-09
8.38282e-09
2.84439e-09
7.98469e-07
6.64699e-09
3.34213e-09
8.33838e-07
3.65816e-09
3.65816e-09
8.56358e-07
6.07924e-16
3.80934e-09
8.67455e-07
-3.65816e-09
3.80934e-09
8.67455e-07
-6.64699e-09
3.65816e-09
8.56358e-07
-8.38282e-09
3.34213e-09
8.33838e-07
-8.4922e-09
2.84439e-09
7.98469e-07
2.18713e-09
7.45589e-07
-6.9687e-09
8.88009e-09
2.51612e-16
7.61504e-07
-7.27069e-09
8.75419e-09
1.04251e-15
8.11981e-07
6.92959e-09
7.29079e-16
8.45798e-07
3.80934e-09
5.52904e-16
8.67455e-07
8.27377e-16
7.4274e-16
8.78167e-07
-3.80934e-09
1.03497e-15
8.78167e-07
-6.92959e-09
1.09254e-15
8.67455e-07
-8.75418e-09
5.80968e-16
8.45798e-07
-8.88009e-09
-4.17164e-16
8.11981e-07
-7.67043e-16
7.61504e-07
-7.27069e-09
8.88009e-09
-2.18713e-09
7.61504e-07
-7.27069e-09
8.75419e-09
-2.84439e-09
8.11981e-07
6.92959e-09
-3.34213e-09
8.45798e-07
3.80934e-09
-3.65816e-09
8.67455e-07
1.17292e-15
-3.80934e-09
8.78167e-07
-3.80934e-09
-3.80934e-09
8.78167e-07
-6.92959e-09
-3.65816e-09
8.67455e-07
-8.75418e-09
-3.34213e-09
8.45798e-07
-8.88009e-09
-2.84439e-09
8.11981e-07
-2.18713e-09
7.61504e-07
-7.27069e-09
8.4922e-09
-3.94362e-09
7.45589e-07
-6.9687e-09
8.38282e-09
-5.14493e-09
7.98469e-07
6.64699e-09
-6.06061e-09
8.33838e-07
3.65816e-09
-6.64699e-09
8.56358e-07
1.18975e-15
-6.92959e-09
8.67455e-07
-3.65816e-09
-6.92959e-09
8.67455e-07
-6.64699e-09
-6.64698e-09
8.56358e-07
-8.38282e-09
-6.06061e-09
8.33838e-07
-8.49219e-09
-5.14493e-09
7.98469e-07
-3.94362e-09
7.45589e-07
-6.9687e-09
7.70325e-09
-4.94455e-09
7.12929e-07
-6.34052e-09
7.62227e-09
-6.45866e-09
7.70671e-07
6.06061e-09
-7.62227e-09
8.09393e-07
3.34213e-09
-8.38282e-09
8.33838e-07
7.6637e-16
-8.75418e-09
8.45798e-07
-3.34213e-09
-8.75418e-09
8.45798e-07
-6.06061e-09
-8.38281e-09
8.33838e-07
-7.62227e-09
-7.62227e-09
8.09393e-07
-7.70325e-09
-6.45867e-09
7.70671e-07
-4.94456e-09
7.12929e-07
-6.34052e-09
6.53311e-09
-4.99838e-09
6.61836e-07
-5.46057e-09
6.45867e-09
-6.53311e-09
7.26533e-07
5.14493e-09
-7.70325e-09
7.70671e-07
2.84439e-09
-8.4922e-09
7.98469e-07
-3.86663e-18
-8.88009e-09
8.11981e-07
-2.84439e-09
-8.88009e-09
8.11981e-07
-5.14493e-09
-8.49219e-09
7.98469e-07
-6.45866e-09
-7.70325e-09
7.70671e-07
-6.53311e-09
-6.53312e-09
7.26533e-07
-4.99838e-09
6.61836e-07
-5.46057e-09
4.99837e-09
5.90685e-07
-4.24458e-09
-4.24458e-09
4.94455e-09
6.61836e-07
-5.46057e-09
3.94362e-09
7.12929e-07
-6.34052e-09
2.18713e-09
7.45589e-07
-6.9687e-09
-7.3168e-16
7.61504e-07
-7.27069e-09
-2.18713e-09
7.61504e-07
-7.27069e-09
-3.94362e-09
7.45589e-07
-6.9687e-09
-4.94455e-09
7.12929e-07
-6.34052e-09
-4.99837e-09
6.61836e-07
-5.46057e-09
5.90685e-07
-4.24458e-09
-4.24458e-09
1.38184e-09
1.38184e-09
5.89982e-07
-1.03031e-09
-1.03031e-09
1.49107e-09
2.02393e-09
6.61193e-07
-1.49021e-09
1.25215e-09
2.54813e-09
7.12462e-07
-1.84305e-09
7.15068e-10
2.92345e-09
7.45318e-07
-2.11523e-09
2.92188e-16
3.11206e-09
7.61355e-07
-2.24801e-09
-7.15068e-10
3.11206e-09
7.61355e-07
-2.24801e-09
-1.25215e-09
2.92345e-09
7.45318e-07
-2.11523e-09
-1.49108e-09
2.54812e-09
7.12462e-07
-1.84305e-09
-1.38184e-09
2.02393e-09
6.61193e-07
-1.49021e-09
1.38184e-09
5.89982e-07
-1.03031e-09
-1.03031e-09
2.02393e-09
1.49107e-09
6.61193e-07
-1.49021e-09
2.16678e-09
2.16678e-09
7.26247e-07
1.80996e-09
2.72196e-09
7.70854e-07
1.02699e-09
3.1051e-09
7.9907e-07
8.49053e-16
3.29698e-09
8.12823e-07
-1.02699e-09
3.29698e-09
8.12823e-07
-1.80995e-09
3.1051e-09
7.9907e-07
-2.16678e-09
2.72196e-09
7.70854e-07
-2.02393e-09
2.16678e-09
7.26247e-07
1.49107e-09
6.61193e-07
-1.49021e-09
2.54813e-09
1.25215e-09
7.12462e-07
-1.84305e-09
2.72196e-09
1.80996e-09
7.70854e-07
2.26338e-09
2.26338e-09
8.10311e-07
1.27837e-09
2.56931e-09
8.35359e-07
9.33891e-16
2.72096e-09
8.47653e-07
-1.27837e-09
2.72096e-09
8.47653e-07
-2.26338e-09
2.56931e-09
8.35359e-07
-2.72196e-09
2.26338e-09
8.10311e-07
-2.54812e-09
1.80995e-09
7.70854e-07
1.25215e-09
7.12462e-07
-1.84305e-09
2.92345e-09
7.15068e-10
7.45318e-07
-2.11523e-09
3.1051e-09
1.02699e-09
7.9907e-07
2.56931e-09
1.27837e-09
8.35359e-07
1.44635e-09
1.44635e-09
8.58604e-07
8.09088e-16
1.52913e-09
8.70093e-07
-1.44635e-09
1.52913e-09
8.70093e-07
-2.56931e-09
1.44635e-09
8.58604e-07
-3.1051e-09
1.27837e-09
8.35359e-07
-2.92345e-09
1.02699e-09
7.9907e-07
7.15068e-10
7.45318e-07
-2.11523e-09
3.11206e-09
2.94658e-16
7.61355e-07
-2.24801e-09
3.29698e-09
1.00687e-15
8.12823e-07
2.72096e-09
1.10315e-15
8.47653e-07
1.52913e-09
9.74717e-16
8.70093e-07
7.55473e-16
9.47432e-16
8.81225e-07
-1.52913e-09
9.18518e-16
8.81225e-07
-2.72096e-09
7.62016e-16
8.70093e-07
-3.29697e-09
5.06244e-16
8.47653e-07
-3.11206e-09
6.66514e-17
8.12823e-07
1.696e-16
7.61355e-07
-2.24801e-09
3.11206e-09
-7.15068e-10
7.61355e-07
-2.24801e-09
3.29698e-09
-1.02699e-09
8.12823e-07
2.72096e-09
-1.27837e-09
8.47653e-07
1.52913e-09
-1.44635e-09
8.70093e-07
7.12595e-16
-1.52913e-09
8.81225e-07
-1.52913e-09
-1.52913e-09
8.81225e-07
-2.72096e-09
-1.44635e-09
8.70093e-07
-3.29697e-09
-1.27837e-09
8.47653e-07
-3.11206e-09
-1.02699e-09
8.12823e-07
-7.15067e-10
7.61355e-07
-2.24801e-09
2.92345e-09
-1.25215e-09
7.45318e-07
-2.11523e-09
3.1051e-09
-1.80995e-09
7.9907e-07
2.56931e-09
-2.26338e-09
8.35359e-07
1.44635e-09
-2.56931e-09
8.58604e-07
6.57252e-16
-2.72096e-09
8.70093e-07
-1.44635e-09
-2.72096e-09
8.70093e-07
-2.56931e-09
-2.56931e-09
8.58604e-07
-3.1051e-09
-2.26338e-09
8.35359e-07
-2.92345e-09
-1.80995e-09
7.9907e-07
-1.25215e-09
7.45318e-07
-2.11523e-09
2.54813e-09
-1.49107e-09
7.12462e-07
-1.84305e-09
2.72196e-09
-2.16678e-09
7.70854e-07
2.26338e-09
-2.72196e-09
8.10311e-07
1.27837e-09
-3.1051e-09
8.35359e-07
4.94541e-16
-3.29697e-09
8.47653e-07
-1.27837e-09
-3.29697e-09
8.47653e-07
-2.26338e-09
-3.1051e-09
8.35359e-07
-2.72196e-09
-2.72196e-09
8.10311e-07
-2.54812e-09
-2.16678e-09
7.70854e-07
-1.49107e-09
7.12462e-07
-1.84305e-09
2.02393e-09
-1.38184e-09
6.61193e-07
-1.49021e-09
2.16678e-09
-2.02393e-09
7.26247e-07
1.80995e-09
-2.54812e-09
7.70854e-07
1.02699e-09
-2.92345e-09
7.9907e-07
2.44653e-16
-3.11206e-09
8.12823e-07
-1.02699e-09
-3.11206e-09
8.12823e-07
-1.80995e-09
-2.92345e-09
7.9907e-07
-2.16678e-09
-2.54812e-09
7.70854e-07
-2.02393e-09
-2.02393e-09
7.26247e-07
-1.38184e-09
6.61193e-07
-1.49021e-09
1.38184e-09
5.89982e-07
-1.03031e-09
-1.03031e-09
1.49107e-09
6.61193e-07
-1.49021e-09
1.25215e-09
7.12462e-07
-1.84305e-09
7.15068e-10
7.45318e-07
-2.11523e-09
1.51555e-16
7.61355e-07
-2.24801e-09
-7.15068e-10
7.61355e-07
-2.24801e-09
-1.25215e-09
7.45318e-07
-2.11523e-09
-1.49107e-09
7.12462e-07
-1.84305e-09
-1.38184e-09
6.61193e-07
-1.49021e-09
5.89982e-07
-1.03031e-09
-1.03031e-09
3.20481e-10
3.2048e-10
5.89711e-07
-1.84793e-10
-1.84793e-10
3.91631e-10
5.48475e-10
6.60908e-07
-3.34582e-10
3.51202e-10
7.44439e-10
7.12215e-07
-4.56308e-10
2.07593e-10
8.91735e-10
7.45125e-07
-5.54945e-10
-9.77634e-17
9.66751e-10
7.61199e-07
-6.03262e-10
-2.07594e-10
9.66751e-10
7.61199e-07
-6.03261e-10
-3.51202e-10
8.91734e-10
7.45125e-07
-5.54945e-10
-3.91632e-10
7.44439e-10
7.12215e-07
-4.56308e-10
-3.20483e-10
5.48477e-10
6.60908e-07
-3.34582e-10
3.20481e-10
5.89711e-07
-1.84794e-10
-1.84793e-10
5.48475e-10
3.9163e-10
6.60908e-07
-3.34581e-10
6.45375e-10
6.45375e-10
7.26054e-07
5.67106e-10
8.64341e-10
7.70812e-07
3.30426e-10
1.02228e-09
7.99176e-07
-4.86554e-17
1.10283e-09
8.13017e-07
-3.30426e-10
1.10283e-09
8.13017e-07
-5.67107e-10
1.02228e-09
7.99176e-07
-6.45377e-10
8.64342e-10
7.70812e-07
-5.48477e-10
6.45376e-10
7.26054e-07
3.9163e-10
6.60908e-07
-3.34582e-10
7.44437e-10
3.51201e-10
7.12215e-07
-4.56308e-10
8.64339e-10
5.67106e-10
7.70812e-07
7.51856e-10
7.51858e-10
8.10536e-07
4.34658e-10
8.82015e-10
8.35817e-07
7.82273e-17
9.47898e-10
8.48242e-07
-4.34658e-10
9.47898e-10
8.48242e-07
-7.51857e-10
8.82015e-10
8.35817e-07
-8.6434e-10
7.51858e-10
8.10536e-07
-7.44438e-10
5.67107e-10
7.70812e-07
3.51201e-10
7.12215e-07
-4.56308e-10
8.91733e-10
2.07593e-10
7.45125e-07
-5.54945e-10
1.02228e-09
3.30426e-10
7.99176e-07
8.82014e-10
4.34659e-10
8.35817e-07
5.07389e-10
5.07389e-10
8.59353e-07
2.8658e-16
5.44049e-10
8.71004e-07
-5.07388e-10
5.44049e-10
8.71004e-07
-8.82014e-10