/*--------------------------------*- C++ -*----------------------------------*\
| =========                 |                                                 |
| \\      /  F ield         | OpenFOAM: The Open Source CFD Toolbox           |
|  \\    /   O peration     | Version:  2412                                  |
|   \\  /    A nd           | Website:  www.openfoam.com                      |
|    \\/     M anipulation  |                                                 |
\*---------------------------------------------------------------------------*/
FoamFile
{
    version     2.0;
    format      ascii;
    arch        "LSB;label=32;scalar=64";
    class       surfaceScalarField;
    location    "5.1";
    object      phi;
}
// * * * * * * * * * * * * * * * * * * * * * * * * * * * * * * * * * * * * * //

dimensions      [0 3 -1 0 0 0 0];

oriented        oriented;

internalField   nonuniform List<scalar> 
43700
(
1.85765e-07
1.85765e-07
5.49721e-07
-2.25617e-07
-2.25617e-07
1.37558e-07
1.65079e-07
5.94055e-07
-2.01543e-07
9.11336e-08
1.51662e-07
6.25557e-07
-1.91365e-07
4.52231e-08
1.4267e-07
6.45752e-07
-1.82799e-07
-1.42215e-16
1.38327e-07
6.5566e-07
-1.78835e-07
-4.52231e-08
1.38327e-07
6.5566e-07
-1.78835e-07
-9.11336e-08
1.4267e-07
6.45752e-07
-1.82799e-07
-1.37558e-07
1.51662e-07
6.25557e-07
-1.91365e-07
-1.85765e-07
1.65079e-07
5.94055e-07
-2.01543e-07
1.85765e-07
5.49721e-07
-2.25617e-07
-2.25617e-07
1.65079e-07
1.37558e-07
5.94055e-07
-2.01543e-07
1.2274e-07
1.2274e-07
6.30521e-07
8.07884e-08
1.11396e-07
6.55908e-07
3.99683e-08
1.03788e-07
6.72198e-07
5.47326e-16
1.00057e-07
6.8021e-07
-3.99683e-08
1.00057e-07
6.8021e-07
-8.07884e-08
1.03788e-07
6.72198e-07
-1.2274e-07
1.11396e-07
6.55908e-07
-1.65079e-07
1.2274e-07
6.30521e-07
1.37558e-07
5.94055e-07
-2.01543e-07
1.51662e-07
9.11336e-08
6.25557e-07
-1.91365e-07
1.11396e-07
8.07884e-08
6.55908e-07
7.27766e-08
7.27766e-08
6.77112e-07
3.58749e-08
6.74032e-08
6.90849e-07
1.8005e-16
6.47567e-08
6.97653e-07
-3.58749e-08
6.47567e-08
6.97653e-07
-7.27766e-08
6.74032e-08
6.90849e-07
-1.11396e-07
7.27766e-08
6.77112e-07
-1.51662e-07
8.07884e-08
6.55908e-07
9.11336e-08
6.25557e-07
-1.91365e-07
1.4267e-07
4.52231e-08
6.45752e-07
-1.82799e-07
1.03788e-07
3.99683e-08
6.72198e-07
6.74032e-08
3.58749e-08
6.90849e-07
3.3121e-08
3.3121e-08
7.03067e-07
-4.03715e-16
3.17615e-08
7.09158e-07
-3.3121e-08
3.17615e-08
7.09158e-07
-6.74032e-08
3.3121e-08
7.03067e-07
-1.03788e-07
3.58749e-08
6.90849e-07
-1.4267e-07
3.99683e-08
6.72198e-07
4.52231e-08
6.45752e-07
-1.82799e-07
1.38327e-07
-1.46875e-17
6.5566e-07
-1.78835e-07
1.00057e-07
-4.64261e-16
6.8021e-07
6.47567e-08
-2.1979e-16
6.97653e-07
3.17615e-08
-1.05204e-16
7.09158e-07
-2.52435e-16
-5.40281e-16
7.14916e-07
-3.17615e-08
-6.93674e-17
7.14916e-07
-6.47567e-08
3.5715e-16
7.09158e-07
-1.00057e-07
-4.70897e-17
6.97653e-07
-1.38327e-07
-5.16551e-16
6.8021e-07
3.79315e-17
6.5566e-07
-1.78835e-07
1.38327e-07
-4.52231e-08
6.5566e-07
-1.78835e-07
1.00057e-07
-3.99683e-08
6.8021e-07
6.47567e-08
-3.58749e-08
6.97653e-07
3.17615e-08
-3.3121e-08
7.09158e-07
2.30197e-16
-3.17615e-08
7.14916e-07
-3.17615e-08
-3.17615e-08
7.14916e-07
-6.47567e-08
-3.3121e-08
7.09158e-07
-1.00057e-07
-3.58749e-08
6.97653e-07
-1.38327e-07
-3.99683e-08
6.8021e-07
-4.52231e-08
6.5566e-07
-1.78835e-07
1.4267e-07
-9.11336e-08
6.45752e-07
-1.82799e-07
1.03788e-07
-8.07884e-08
6.72198e-07
6.74032e-08
-7.27766e-08
6.90849e-07
3.3121e-08
-6.74032e-08
7.03067e-07
-3.21188e-17
-6.47567e-08
7.09158e-07
-3.3121e-08
-6.47567e-08
7.09158e-07
-6.74032e-08
-6.74032e-08
7.03067e-07
-1.03788e-07
-7.27766e-08
6.90849e-07
-1.4267e-07
-8.07884e-08
6.72198e-07
-9.11336e-08
6.45752e-07
-1.82799e-07
1.51662e-07
-1.37558e-07
6.25557e-07
-1.91365e-07
1.11396e-07
-1.2274e-07
6.55908e-07
7.27766e-08
-1.11396e-07
6.77112e-07
3.58749e-08
-1.03788e-07
6.90849e-07
-4.6483e-16
-1.00057e-07
6.97653e-07
-3.58749e-08
-1.00057e-07
6.97653e-07
-7.27766e-08
-1.03788e-07
6.90849e-07
-1.11396e-07
-1.11396e-07
6.77112e-07
-1.51662e-07
-1.2274e-07
6.55908e-07
-1.37558e-07
6.25557e-07
-1.91365e-07
1.65079e-07
-1.85765e-07
5.94055e-07
-2.01543e-07
1.2274e-07
-1.65079e-07
6.30521e-07
8.07884e-08
-1.51662e-07
6.55908e-07
3.99683e-08
-1.4267e-07
6.72198e-07
-3.32742e-16
-1.38327e-07
6.8021e-07
-3.99683e-08
-1.38327e-07
6.8021e-07
-8.07884e-08
-1.4267e-07
6.72198e-07
-1.2274e-07
-1.51662e-07
6.55908e-07
-1.65079e-07
-1.65079e-07
6.30521e-07
-1.85765e-07
5.94055e-07
-2.01543e-07
1.85765e-07
5.49721e-07
-2.25617e-07
-2.25617e-07
1.37558e-07
5.94055e-07
-2.01543e-07
9.11336e-08
6.25557e-07
-1.91365e-07
4.52231e-08
6.45752e-07
-1.82799e-07
6.27108e-16
6.5566e-07
-1.78835e-07
-4.52231e-08
6.5566e-07
-1.78835e-07
-9.11336e-08
6.45752e-07
-1.82799e-07
-1.37558e-07
6.25557e-07
-1.91365e-07
-1.85765e-07
5.94055e-07
-2.01543e-07
5.49721e-07
-2.25617e-07
-2.25617e-07
1.11147e-07
1.11147e-07
5.83902e-07
-1.28238e-07
-1.28238e-07
8.71032e-08
1.08682e-07
6.3704e-07
-1.27623e-07
5.94985e-08
1.05905e-07
6.73625e-07
-1.26368e-07
3.00659e-08
1.03456e-07
6.96398e-07
-1.24669e-07
-2.48256e-16
1.02254e-07
7.07368e-07
-1.23896e-07
-3.00659e-08
1.02254e-07
7.07368e-07
-1.23896e-07
-5.94985e-08
1.03456e-07
6.96398e-07
-1.24669e-07
-8.71032e-08
1.05905e-07
6.73625e-07
-1.26368e-07
-1.11147e-07
1.08682e-07
6.3704e-07
-1.27623e-07
1.11147e-07
5.83902e-07
-1.28238e-07
-1.28238e-07
1.08682e-07
8.71032e-08
6.3704e-07
-1.27623e-07
8.40356e-08
8.40356e-08
6.79813e-07
5.69213e-08
8.10551e-08
7.07873e-07
2.86507e-08
7.8757e-08
7.25167e-07
4.33202e-16
7.7611e-08
7.33504e-07
-2.86507e-08
7.7611e-08
7.33504e-07
-5.69213e-08
7.8757e-08
7.25167e-07
-8.40356e-08
8.10551e-08
7.07873e-07
-1.08682e-07
8.40356e-08
6.79813e-07
8.71032e-08
6.3704e-07
-1.27623e-07
1.05905e-07
5.94985e-08
6.73625e-07
-1.26368e-07
8.10551e-08
5.69213e-08
7.07873e-07
5.45849e-08
5.45849e-08
7.30052e-07
2.74174e-08
5.28946e-08
7.43879e-07
2.70137e-16
5.2053e-08
7.50629e-07
-2.74174e-08
5.2053e-08
7.50629e-07
-5.45849e-08
5.28946e-08
7.43879e-07
-8.10551e-08
5.45849e-08
7.30052e-07
-1.05905e-07
5.69213e-08
7.07873e-07
5.94985e-08
6.73625e-07
-1.26368e-07
1.03456e-07
3.00659e-08
6.96398e-07
-1.24669e-07
7.8757e-08
2.86507e-08
7.25167e-07
5.28946e-08
2.74174e-08
7.43879e-07
2.6546e-08
2.6546e-08
7.55764e-07
1.28267e-16
2.61121e-08
7.61645e-07
-2.6546e-08
2.61121e-08
7.61645e-07
-5.28946e-08
2.6546e-08
7.55764e-07
-7.8757e-08
2.74174e-08
7.43879e-07
-1.03456e-07
2.86507e-08
7.25167e-07
3.00659e-08
6.96398e-07
-1.24669e-07
1.02254e-07
-1.00321e-15
7.07368e-07
-1.23896e-07
7.7611e-08
1.72313e-16
7.33504e-07
5.2053e-08
4.66108e-16
7.50629e-07
2.61121e-08
1.3343e-16
7.61645e-07
3.26014e-16
1.54907e-16
7.6714e-07
-2.61121e-08
5.7895e-16
7.6714e-07
-5.2053e-08
8.40728e-16
7.61645e-07
-7.7611e-08
5.30643e-16
7.50629e-07
-1.02254e-07
-4.37693e-16
7.33504e-07
-7.3749e-16
7.07368e-07
-1.23896e-07
1.02254e-07
-3.00659e-08
7.07368e-07
-1.23896e-07
7.7611e-08
-2.86507e-08
7.33504e-07
5.2053e-08
-2.74174e-08
7.50629e-07
2.61121e-08
-2.6546e-08
7.61645e-07
7.0677e-16
-2.61121e-08
7.6714e-07
-2.61121e-08
-2.61121e-08
7.6714e-07
-5.2053e-08
-2.6546e-08
7.61645e-07
-7.7611e-08
-2.74174e-08
7.50629e-07
-1.02254e-07
-2.86507e-08
7.33504e-07
-3.00659e-08
7.07368e-07
-1.23896e-07
1.03456e-07
-5.94985e-08
6.96398e-07
-1.24669e-07
7.8757e-08
-5.69213e-08
7.25167e-07
5.28946e-08
-5.45849e-08
7.43879e-07
2.6546e-08
-5.28946e-08
7.55764e-07
8.73476e-16
-5.2053e-08
7.61645e-07
-2.6546e-08
-5.2053e-08
7.61645e-07
-5.28946e-08
-5.28946e-08
7.55764e-07
-7.8757e-08
-5.45849e-08
7.43879e-07
-1.03456e-07
-5.69213e-08
7.25167e-07
-5.94985e-08
6.96398e-07
-1.24669e-07
1.05905e-07
-8.71032e-08
6.73625e-07
-1.26368e-07
8.10551e-08
-8.40356e-08
7.07873e-07
5.45849e-08
-8.10551e-08
7.30052e-07
2.74174e-08
-7.8757e-08
7.43879e-07
2.49286e-16
-7.7611e-08
7.50629e-07
-2.74174e-08
-7.7611e-08
7.50629e-07
-5.45849e-08
-7.8757e-08
7.43879e-07
-8.10551e-08
-8.10551e-08
7.30052e-07
-1.05905e-07
-8.40356e-08
7.07873e-07
-8.71032e-08
6.73625e-07
-1.26368e-07
1.08682e-07
-1.11147e-07
6.3704e-07
-1.27623e-07
8.40356e-08
-1.08682e-07
6.79813e-07
5.69213e-08
-1.05905e-07
7.07873e-07
2.86507e-08
-1.03456e-07
7.25167e-07
-1.11509e-15
-1.02254e-07
7.33504e-07
-2.86507e-08
-1.02254e-07
7.33504e-07
-5.69213e-08
-1.03456e-07
7.25167e-07
-8.40356e-08
-1.05905e-07
7.07873e-07
-1.08682e-07
-1.08682e-07
6.79813e-07
-1.11147e-07
6.3704e-07
-1.27623e-07
1.11147e-07
5.83902e-07
-1.28238e-07
-1.28238e-07
8.71032e-08
6.3704e-07
-1.27623e-07
5.94985e-08
6.73625e-07
-1.26368e-07
3.00659e-08
6.96398e-07
-1.24669e-07
-1.01577e-15
7.07368e-07
-1.23896e-07
-3.00659e-08
7.07368e-07
-1.23896e-07
-5.94986e-08
6.96398e-07
-1.24669e-07
-8.71032e-08
6.73625e-07
-1.26368e-07
-1.11147e-07
6.3704e-07
-1.27623e-07
5.83902e-07
-1.28238e-07
-1.28238e-07
7.23397e-08
7.23397e-08
5.92508e-07
-7.66428e-08
-7.66428e-08
6.0529e-08
7.61165e-08
6.54109e-07
-8.13742e-08
4.31738e-08
7.78786e-08
6.96799e-07
-8.36979e-08
2.23944e-08
7.84727e-08
7.23478e-07
-8.47742e-08
-7.92783e-16
7.86952e-08
7.36341e-07
-8.5274e-08
-2.23944e-08
7.86952e-08
7.36341e-07
-8.5274e-08
-4.31738e-08
7.84727e-08
7.23478e-07
-8.47742e-08
-6.0529e-08
7.78786e-08
6.96799e-07
-8.36979e-08
-7.23397e-08
7.61165e-08
6.54109e-07
-8.13742e-08
7.23397e-08
5.92508e-07
-7.66428e-08
-7.66428e-08
7.61165e-08
6.0529e-08
6.54109e-07
-8.13742e-08
6.31646e-08
6.31646e-08
7.05717e-07
4.49069e-08
6.43129e-08
7.39696e-07
2.32591e-08
6.46186e-08
7.60669e-07
2.19334e-15
6.46848e-08
7.70774e-07
-2.32591e-08
6.46848e-08
7.70774e-07
-4.49069e-08
6.46186e-08
7.60669e-07
-6.31646e-08
6.43129e-08
7.39696e-07
-7.61165e-08
6.31646e-08
7.05717e-07
6.0529e-08
6.54109e-07
-8.13742e-08
7.78786e-08
4.31738e-08
6.96799e-07
-8.36979e-08
6.43129e-08
4.49069e-08
7.39696e-07
4.55976e-08
4.55976e-08
7.67483e-07
2.35936e-08
4.57418e-08
7.8476e-07
1.61291e-15
4.57417e-08
7.93166e-07
-2.35936e-08
4.57417e-08
7.93166e-07
-4.55976e-08
4.57418e-08
7.8476e-07
-6.43129e-08
4.55976e-08
7.67483e-07
-7.78786e-08
4.49069e-08
7.39696e-07
4.31738e-08
6.96799e-07
-8.36979e-08
7.84727e-08
2.23944e-08
7.23478e-07
-8.47742e-08
6.46186e-08
2.32591e-08
7.60669e-07
4.57418e-08
2.35936e-08
7.8476e-07
2.3654e-08
2.3654e-08
7.9994e-07
9.71894e-16
2.36434e-08
8.07397e-07
-2.3654e-08
2.36434e-08
8.07397e-07
-4.57418e-08
2.3654e-08
7.9994e-07
-6.46186e-08
2.35936e-08
7.8476e-07
-7.84727e-08
2.32591e-08
7.60669e-07
2.23944e-08
7.23478e-07
-8.47742e-08
7.86952e-08
-5.6372e-16
7.36341e-07
-8.5274e-08
6.46848e-08
2.12326e-15
7.70774e-07
4.57417e-08
1.88005e-15
7.93166e-07
2.36434e-08
1.36236e-15
8.07397e-07
7.03331e-16
1.01762e-15
8.14427e-07
-2.36434e-08
1.16339e-15
8.14427e-07
-4.57417e-08
7.77128e-16
8.07397e-07
-6.46848e-08
-1.50225e-16
7.93166e-07
-7.86952e-08
-2.22451e-15
7.70774e-07
-2.64628e-15
7.36341e-07
-8.5274e-08
7.86952e-08
-2.23944e-08
7.36341e-07
-8.5274e-08
6.46848e-08
-2.32591e-08
7.70774e-07
4.57417e-08
-2.35936e-08
7.93166e-07
2.36434e-08
-2.3654e-08
8.07397e-07
7.40044e-16
-2.36434e-08
8.14427e-07
-2.36434e-08
-2.36434e-08
8.14427e-07
-4.57417e-08
-2.3654e-08
8.07397e-07
-6.46848e-08
-2.35936e-08
7.93166e-07
-7.86952e-08
-2.32591e-08
7.70774e-07
-2.23944e-08
7.36341e-07
-8.5274e-08
7.84727e-08
-4.31738e-08
7.23478e-07
-8.47742e-08
6.46186e-08
-4.49069e-08
7.60669e-07
4.57418e-08
-4.55976e-08
7.8476e-07
2.3654e-08
-4.57418e-08
7.9994e-07
3.65105e-16
-4.57417e-08
8.07397e-07
-2.3654e-08
-4.57417e-08
8.07397e-07
-4.57418e-08
-4.57418e-08
7.9994e-07
-6.46186e-08
-4.55976e-08
7.8476e-07
-7.84727e-08
-4.49069e-08
7.60669e-07
-4.31739e-08
7.23478e-07
-8.47742e-08
7.78786e-08
-6.0529e-08
6.96799e-07
-8.36979e-08
6.43129e-08
-6.31646e-08
7.39696e-07
4.55976e-08
-6.43129e-08
7.67483e-07
2.35936e-08
-6.46186e-08
7.8476e-07
-3.48055e-16
-6.46848e-08
7.93166e-07
-2.35936e-08
-6.46848e-08
7.93166e-07
-4.55976e-08
-6.46186e-08
7.8476e-07
-6.43129e-08
-6.43129e-08
7.67483e-07
-7.78786e-08
-6.31646e-08
7.39696e-07
-6.0529e-08
6.96799e-07
-8.36979e-08
7.61165e-08
-7.23397e-08
6.54109e-07
-8.13742e-08
6.31646e-08
-7.61165e-08
7.05717e-07
4.49069e-08
-7.78786e-08
7.39696e-07
2.32591e-08
-7.84727e-08
7.60669e-07
-2.34129e-15
-7.86952e-08
7.70774e-07
-2.32591e-08
-7.86952e-08
7.70774e-07
-4.49069e-08
-7.84727e-08
7.60669e-07
-6.31646e-08
-7.78786e-08
7.39696e-07
-7.61165e-08
-7.61165e-08
7.05717e-07
-7.23397e-08
6.54109e-07
-8.13742e-08
7.23397e-08
5.92508e-07
-7.66428e-08
-7.66428e-08
6.0529e-08
6.54109e-07
-8.13742e-08
4.31738e-08
6.96799e-07
-8.36979e-08
2.23944e-08
7.23478e-07
-8.47742e-08
-1.88041e-15
7.36341e-07
-8.5274e-08
-2.23944e-08
7.36341e-07
-8.5274e-08
-4.31738e-08
7.23478e-07
-8.47742e-08
-6.0529e-08
6.96799e-07
-8.36979e-08
-7.23397e-08
6.54109e-07
-8.13742e-08
5.92508e-07
-7.66428e-08
-7.66428e-08
2.81105e-08
2.81105e-08
5.91519e-07
-2.76161e-08
-2.76161e-08
2.52388e-08
3.26614e-08
6.56413e-07
-3.20937e-08
1.8844e-08
3.56556e-08
7.02195e-07
-3.46562e-08
1.0052e-08
3.74251e-08
7.31192e-07
-3.63467e-08
-5.60808e-16
3.82684e-08
7.45278e-07
-3.71533e-08
-1.0052e-08
3.82684e-08
7.45278e-07
-3.71533e-08
-1.8844e-08
3.74251e-08
7.31192e-07
-3.63467e-08
-2.52388e-08
3.56556e-08
7.02195e-07
-3.46562e-08
-2.81105e-08
3.26614e-08
6.56413e-07
-3.20937e-08
2.81105e-08
5.91519e-07
-2.76161e-08
-2.76161e-08
3.26614e-08
2.52388e-08
6.56413e-07
-3.20937e-08
2.90741e-08
2.90741e-08
7.12891e-07
2.16885e-08
3.17012e-08
7.51036e-07
1.15527e-08
3.32359e-08
7.74994e-07
1.12833e-15
3.39502e-08
7.86644e-07
-1.15527e-08
3.39502e-08
7.86644e-07
-2.16885e-08
3.32359e-08
7.74994e-07
-2.90741e-08
3.17012e-08
7.51036e-07
-3.26614e-08
2.90741e-08
7.12891e-07
2.52388e-08
6.56413e-07
-3.20937e-08
3.56556e-08
1.8844e-08
7.02195e-07
-3.46562e-08
3.17012e-08
2.16885e-08
7.51036e-07
2.36046e-08
2.36046e-08
7.83676e-07
1.25589e-08
2.47113e-08
8.0433e-07
1.01411e-15
2.52164e-08
8.14458e-07
-1.25589e-08
2.52164e-08
8.14458e-07
-2.36046e-08
2.47113e-08
8.0433e-07
-3.17012e-08
2.36046e-08
7.83676e-07
-3.56556e-08
2.16885e-08
7.51036e-07
1.8844e-08
7.02195e-07
-3.46562e-08
3.74251e-08
1.0052e-08
7.31192e-07
-3.63467e-08
3.32359e-08
1.15527e-08
7.74994e-07
2.47113e-08
1.25589e-08
8.0433e-07
1.31363e-08
1.31363e-08
8.2309e-07
5.7588e-16
1.33965e-08
8.32354e-07
-1.31363e-08
1.33965e-08
8.32354e-07
-2.47113e-08
1.31363e-08
8.2309e-07
-3.32359e-08
1.25589e-08
8.0433e-07
-3.74251e-08
1.15527e-08
7.74994e-07
1.0052e-08
7.31192e-07
-3.63467e-08
3.82684e-08
8.51962e-16
7.45278e-07
-3.71533e-08
3.39502e-08
1.11327e-15
7.86644e-07
2.52164e-08
7.86897e-16
8.14458e-07
1.33965e-08
8.4196e-16
8.32354e-07
7.16997e-16
8.12007e-16
8.4122e-07
-1.33965e-08
1.27869e-15
8.4122e-07
-2.52164e-08
1.2314e-15
8.32354e-07
-3.39502e-08
6.23547e-16
8.14458e-07
-3.82684e-08
-2.21531e-15
7.86644e-07
-2.88185e-15
7.45278e-07
-3.71533e-08
3.82684e-08
-1.0052e-08
7.45278e-07
-3.71533e-08
3.39502e-08
-1.15527e-08
7.86644e-07
2.52164e-08
-1.25589e-08
8.14458e-07
1.33965e-08
-1.31363e-08
8.32354e-07
1.13653e-15
-1.33965e-08
8.4122e-07
-1.33965e-08
-1.33965e-08
8.4122e-07
-2.52164e-08
-1.31363e-08
8.32354e-07
-3.39502e-08
-1.25589e-08
8.14458e-07
-3.82684e-08
-1.15527e-08
7.86644e-07
-1.0052e-08
7.45278e-07
-3.71533e-08
3.74251e-08
-1.8844e-08
7.31192e-07
-3.63467e-08
3.32359e-08
-2.16885e-08
7.74994e-07
2.47113e-08
-2.36046e-08
8.0433e-07
1.31363e-08
-2.47113e-08
8.2309e-07
9.25514e-16
-2.52164e-08
8.32354e-07
-1.31363e-08
-2.52164e-08
8.32354e-07
-2.47113e-08
-2.47113e-08
8.2309e-07
-3.32359e-08
-2.36046e-08
8.0433e-07
-3.74251e-08
-2.16885e-08
7.74994e-07
-1.8844e-08
7.31192e-07
-3.63467e-08
3.56556e-08
-2.52388e-08
7.02195e-07
-3.46562e-08
3.17012e-08
-2.90741e-08
7.51036e-07
2.36046e-08
-3.17012e-08
7.83676e-07
1.25589e-08
-3.32359e-08
8.0433e-07
5.25057e-16
-3.39502e-08
8.14458e-07
-1.25589e-08
-3.39502e-08
8.14458e-07
-2.36046e-08
-3.32359e-08
8.0433e-07
-3.17012e-08
-3.17012e-08
7.83676e-07
-3.56556e-08
-2.90741e-08
7.51036e-07
-2.52388e-08
7.02195e-07
-3.46562e-08
3.26614e-08
-2.81105e-08
6.56413e-07
-3.20937e-08
2.90741e-08
-3.26614e-08
7.12891e-07
2.16885e-08
-3.56556e-08
7.51036e-07
1.15527e-08
-3.74251e-08
7.74994e-07
-1.68643e-15
-3.82684e-08
7.86644e-07
-1.15527e-08
-3.82684e-08
7.86644e-07
-2.16885e-08
-3.74251e-08
7.74994e-07
-2.90741e-08
-3.56556e-08
7.51036e-07
-3.26614e-08
-3.26614e-08
7.12891e-07
-2.81105e-08
6.56413e-07
-3.20937e-08
2.81105e-08
5.91519e-07
-2.76161e-08
-2.76161e-08
2.52388e-08
6.56413e-07
-3.20937e-08
1.8844e-08
7.02195e-07
-3.46562e-08
1.0052e-08
7.31192e-07
-3.63467e-08
-2.22304e-15
7.45278e-07
-3.71533e-08
-1.0052e-08
7.45278e-07
-3.71533e-08
-1.8844e-08
7.31192e-07
-3.63467e-08
-2.52388e-08
7.02195e-07
-3.46562e-08
-2.81105e-08
6.56413e-07
-3.20937e-08
5.91519e-07
-2.76161e-08
-2.76161e-08
1.09889e-08
1.09889e-08
5.89857e-07
-1.0158e-08
-1.0158e-08
1.02476e-08
1.33341e-08
6.56017e-07
-1.21973e-08
7.85677e-09
1.49954e-08
7.03119e-07
-1.35286e-08
4.25799e-09
1.60587e-08
7.33178e-07
-1.44456e-08
1.08807e-16
1.6575e-08
7.47845e-07
-1.48839e-08
-4.25799e-09
1.6575e-08
7.47845e-07
-1.48839e-08
-7.85678e-09
1.60587e-08
7.33178e-07
-1.44456e-08
-1.02476e-08
1.49954e-08
7.03119e-07
-1.35286e-08
-1.09889e-08
1.33341e-08
6.56017e-07
-1.21973e-08
1.09889e-08
5.89857e-07
-1.0158e-08
-1.0158e-08
1.33341e-08
1.02476e-08
6.56017e-07
-1.21973e-08
1.24264e-08
1.24264e-08
7.14707e-07
9.53861e-09
1.40026e-08
7.54917e-07
5.16419e-09
1.49843e-08
7.80443e-07
1.9598e-15
1.54555e-08
7.92928e-07
-5.16418e-09
1.54555e-08
7.92928e-07
-9.5386e-09
1.49843e-08
7.80443e-07
-1.24264e-08
1.40026e-08
7.54917e-07
-1.33341e-08
1.24264e-08
7.14707e-07
1.02476e-08
6.56017e-07
-1.21973e-08
1.49954e-08
7.85677e-09
7.03119e-07
-1.35286e-08
1.40026e-08
9.53861e-09
7.54917e-07
1.07468e-08
1.07468e-08
7.90188e-07
5.81317e-09
1.1487e-08
8.12761e-07
1.60184e-15
1.18374e-08
8.2389e-07
-5.81317e-09
1.18374e-08
8.2389e-07
-1.07467e-08
1.1487e-08
8.12761e-07
-1.40026e-08
1.07467e-08
7.90188e-07
-1.49954e-08
9.53861e-09
7.54917e-07
7.85677e-09
7.03119e-07
-1.35286e-08
1.60587e-08
4.25799e-09
7.33178e-07
-1.44456e-08
1.49843e-08
5.16419e-09
7.80443e-07
1.1487e-08
5.81317e-09
8.12761e-07
6.20891e-09
6.20891e-09
8.33646e-07
9.12063e-16
6.39508e-09
8.44005e-07
-6.20891e-09
6.39508e-09
8.44005e-07
-1.1487e-08
6.20891e-09
8.33646e-07
-1.49843e-08
5.81317e-09
8.12761e-07
-1.60587e-08
5.16418e-09
7.80443e-07
4.25799e-09
7.33178e-07
-1.44456e-08
1.6575e-08
4.55179e-16
7.47845e-07
-1.48839e-08
1.54555e-08
1.64598e-15
7.92928e-07
1.18374e-08
1.5513e-15
8.2389e-07
6.39508e-09
1.2811e-15
8.44005e-07
6.61032e-16
1.02749e-15
8.5401e-07
-6.39507e-09
1.04575e-15
8.5401e-07
-1.18374e-08
6.81506e-16
8.44005e-07
-1.54555e-08
1.12953e-16
8.2389e-07
-1.6575e-08
-1.08006e-15
7.92928e-07
-7.21189e-16
7.47845e-07
-1.48839e-08
1.6575e-08
-4.25799e-09
7.47845e-07
-1.48839e-08
1.54555e-08
-5.16418e-09
7.92928e-07
1.18374e-08
-5.81317e-09
8.2389e-07
6.39508e-09
-6.20891e-09
8.44005e-07
6.18003e-16
-6.39507e-09
8.5401e-07
-6.39507e-09
-6.39507e-09
8.5401e-07
-1.18374e-08
-6.20891e-09
8.44005e-07
-1.54555e-08
-5.81317e-09
8.2389e-07
-1.6575e-08
-5.16419e-09
7.92928e-07
-4.25799e-09
7.47845e-07
-1.48839e-08
1.60587e-08
-7.85677e-09
7.33178e-07
-1.44456e-08
1.49843e-08
-9.53861e-09
7.80443e-07
1.1487e-08
-1.07467e-08
8.12761e-07
6.20891e-09
-1.1487e-08
8.33646e-07
3.70268e-16
-1.18374e-08
8.44005e-07
-6.20891e-09
-1.18374e-08
8.44005e-07
-1.1487e-08
-1.1487e-08
8.33646e-07
-1.49843e-08
-1.07467e-08
8.12761e-07
-1.60587e-08
-9.53861e-09
7.80443e-07
-7.85678e-09
7.33178e-07
-1.44456e-08
1.49954e-08
-1.02476e-08
7.03119e-07
-1.35286e-08
1.40026e-08
-1.24264e-08
7.54917e-07
1.07467e-08
-1.40026e-08
7.90188e-07
5.81317e-09
-1.49842e-08
8.12761e-07
-5.54133e-17
-1.54555e-08
8.2389e-07
-5.81317e-09
-1.54555e-08
8.2389e-07
-1.07467e-08
-1.49843e-08
8.12761e-07
-1.40026e-08
-1.40026e-08
7.90188e-07
-1.49954e-08
-1.24264e-08
7.54917e-07
-1.02476e-08
7.03119e-07
-1.35286e-08
1.33341e-08
-1.09889e-08
6.56017e-07
-1.21973e-08
1.24264e-08
-1.33341e-08
7.14707e-07
9.5386e-09
-1.49954e-08
7.54917e-07
5.16418e-09
-1.60587e-08
7.80443e-07
-1.5511e-15
-1.6575e-08
7.92928e-07
-5.16419e-09
-1.6575e-08
7.92928e-07
-9.53861e-09
-1.60587e-08
7.80443e-07
-1.24264e-08
-1.49954e-08
7.54917e-07
-1.33341e-08
-1.33341e-08
7.14707e-07
-1.09889e-08
6.56017e-07
-1.21973e-08
1.09889e-08
5.89857e-07
-1.0158e-08
-1.0158e-08
1.02476e-08
6.56017e-07
-1.21973e-08
7.85677e-09
7.03119e-07
-1.35286e-08
4.25799e-09
7.33178e-07
-1.44456e-08
-9.93916e-16
7.47845e-07
-1.48839e-08
-4.25799e-09
7.47845e-07
-1.48839e-08
-7.85678e-09
7.33178e-07
-1.44456e-08
-1.02476e-08
7.03119e-07
-1.35286e-08
-1.09889e-08
6.56017e-07
-1.21973e-08
5.89857e-07
-1.0158e-08
-1.0158e-08
3.63153e-09
3.63153e-09
5.8868e-07
-3.04273e-09
-3.04273e-09
3.61904e-09
4.78114e-09
6.55209e-07
-3.96065e-09
2.89298e-09
5.63977e-09
7.02807e-07
-4.60199e-09
1.60614e-09
6.21626e-09
7.33313e-07
-5.06498e-09
-9.7552e-18
6.50027e-09
7.48238e-07
-5.28735e-09
-1.60614e-09
6.50027e-09
7.48238e-07
-5.28735e-09
-2.89298e-09
6.21626e-09
7.33313e-07
-5.06498e-09
-3.61904e-09
5.63977e-09
7.02807e-07
-4.60199e-09
-3.63154e-09
4.78114e-09
6.55209e-07
-3.96065e-09
3.63154e-09
5.8868e-07
-3.04273e-09
-3.04273e-09
4.78114e-09
3.61904e-09
6.55209e-07
-3.96065e-09
4.74588e-09
4.74588e-09
7.14777e-07
3.78484e-09
5.59822e-09
7.55919e-07
2.09274e-09
6.15191e-09
7.82199e-07
3.17389e-16
6.4228e-09
7.95098e-07
-2.09274e-09
6.4228e-09
7.95098e-07
-3.78484e-09
6.15191e-09
7.82199e-07
-4.74588e-09
5.59822e-09
7.55919e-07
-4.78114e-09
4.74588e-09
7.14777e-07
3.61904e-09
6.55209e-07
-3.96065e-09
5.63977e-09
2.89298e-09
7.02807e-07
-4.60199e-09
5.59822e-09
3.78484e-09
7.55919e-07
4.45565e-09
4.45565e-09
7.92473e-07
2.45766e-09
4.88318e-09
8.16028e-07
1.51507e-16
5.08984e-09
8.2768e-07
-2.45766e-09
5.08984e-09
8.2768e-07
-4.45565e-09
4.88318e-09
8.16028e-07
-5.59822e-09
4.45565e-09
7.92473e-07
-5.63977e-09
3.78483e-09
7.55919e-07
2.89298e-09
7.02807e-07
-4.60199e-09
6.21626e-09
1.60614e-09
7.33313e-07
-5.06498e-09
6.15191e-09
2.09274e-09
7.82199e-07
4.88318e-09
2.45766e-09
8.16028e-07
2.68879e-09
2.68879e-09
8.38035e-07
3.24903e-16
2.79982e-09
8.48984e-07
-2.68879e-09
2.79982e-09
8.48984e-07
-4.88318e-09
2.68879e-09
8.38035e-07
-6.15191e-09
2.45766e-09
8.16028e-07
-6.21626e-09
2.09274e-09
7.82199e-07
1.60614e-09
7.33313e-07
-5.06498e-09
6.50027e-09
3.85522e-16
7.48238e-07
-5.28735e-09
6.4228e-09
4.00092e-16
7.95098e-07
5.08984e-09
-3.37411e-17
8.2768e-07
2.79982e-09
1.71623e-16
8.48984e-07
5.60477e-16
4.95322e-16
8.5961e-07
-2.79982e-09
8.09431e-16
8.5961e-07
-5.08984e-09
9.0364e-16
8.48984e-07
-6.4228e-09
4.72001e-16
8.2768e-07
-6.50027e-09
-5.48299e-16
7.95098e-07
-3.86945e-16
7.48238e-07
-5.28735e-09
6.50027e-09
-1.60614e-09
7.48238e-07
-5.28735e-09
6.4228e-09
-2.09274e-09
7.95098e-07
5.08984e-09
-2.45766e-09
8.2768e-07
2.79982e-09
-2.68879e-09
8.48984e-07
9.98551e-16
-2.79982e-09
8.5961e-07
-2.79982e-09
-2.79982e-09
8.5961e-07
-5.08983e-09
-2.68879e-09
8.48984e-07
-6.4228e-09
-2.45766e-09
8.2768e-07
-6.50027e-09
-2.09274e-09
7.95098e-07
-1.60614e-09
7.48238e-07
-5.28734e-09
6.21626e-09
-2.89298e-09
7.33313e-07
-5.06498e-09
6.15191e-09
-3.78484e-09
7.82199e-07
4.88318e-09
-4.45565e-09
8.16028e-07
2.68879e-09
-4.88318e-09
8.38035e-07
8.74559e-16
-5.08984e-09
8.48984e-07
-2.68879e-09
-5.08983e-09
8.48984e-07
-4.88317e-09
-4.88317e-09
8.38035e-07
-6.15191e-09
-4.45565e-09
8.16028e-07
-6.21626e-09
-3.78484e-09
7.82199e-07
-2.89298e-09
7.33313e-07
-5.06497e-09
5.63977e-09
-3.61904e-09
7.02807e-07
-4.60199e-09
5.59822e-09
-4.74588e-09
7.55919e-07
4.45565e-09
-5.59822e-09
7.92473e-07
2.45766e-09
-6.15191e-09
8.16028e-07
9.12194e-18
-6.4228e-09
8.2768e-07
-2.45766e-09
-6.4228e-09
8.2768e-07
-4.45565e-09
-6.15191e-09
8.16028e-07
-5.59822e-09
-5.59822e-09
7.92473e-07
-5.63976e-09
-4.74588e-09
7.55919e-07
-3.61904e-09
7.02807e-07
-4.60199e-09
4.78114e-09
-3.63153e-09
6.55209e-07
-3.96065e-09
4.74588e-09
-4.78114e-09
7.14777e-07
3.78484e-09
-5.63977e-09
7.55919e-07
2.09274e-09
-6.21626e-09
7.82199e-07
-1.05752e-15
-6.50027e-09
7.95098e-07
-2.09274e-09
-6.50027e-09
7.95098e-07
-3.78484e-09
-6.21626e-09
7.82199e-07
-4.74588e-09
-5.63976e-09
7.55919e-07
-4.78114e-09
-4.78114e-09
7.14777e-07
-3.63154e-09
6.55209e-07
-3.96066e-09
3.63153e-09
5.8868e-07
-3.04273e-09
-3.04273e-09
3.61904e-09
6.55209e-07
-3.96065e-09
2.89298e-09
7.02807e-07
-4.60199e-09
1.60614e-09
7.33313e-07
-5.06498e-09
-6.63897e-16
7.48238e-07
-5.28735e-09
-1.60614e-09
7.48238e-07
-5.28735e-09
-2.89298e-09
7.33313e-07
-5.06497e-09
-3.61904e-09
7.02807e-07
-4.60199e-09
-3.63154e-09
6.55209e-07
-3.96066e-09
5.8868e-07
-3.04273e-09
-3.04273e-09
9.74341e-10
9.74342e-10
5.88164e-07
-7.1638e-10
-7.1638e-10
1.05846e-09
1.43822e-09
6.54744e-07
-1.05759e-09
8.88542e-10
1.80508e-09
7.02477e-07
-1.30498e-09
5.07165e-10
2.06582e-09
7.33127e-07
-1.49807e-09
3.63226e-16
2.19652e-09
7.4814e-07
-1.5916e-09
-5.07164e-10
2.19652e-09
7.4814e-07
-1.5916e-09
-8.88542e-10
2.06582e-09
7.33127e-07
-1.49807e-09
-1.05846e-09
1.80508e-09
7.02477e-07
-1.30498e-09
-9.7434e-10
1.43822e-09
6.54744e-07
-1.05759e-09
9.74341e-10
5.88164e-07
-7.16379e-10
-7.16379e-10
1.43822e-09
1.05846e-09
6.54744e-07
-1.05759e-09
1.53743e-09
1.53743e-09
7.14579e-07
1.28056e-09
1.92239e-09
7.56059e-07
7.25152e-10
2.1858e-09
7.82635e-07
7.63076e-16
2.3177e-09
7.95702e-07
-7.2515e-10
2.3177e-09
7.95702e-07
-1.28056e-09
2.18581e-09
7.82635e-07
-1.53742e-09
1.92239e-09
7.56059e-07
-1.43822e-09
1.53742e-09
7.14579e-07
1.05846e-09
6.54744e-07
-1.05759e-09
1.80508e-09
8.88543e-10
7.02477e-07
-1.30498e-09
1.92239e-09
1.28056e-09
7.56059e-07
1.59397e-09
1.59397e-09
7.9313e-07
8.98742e-10
1.8041e-09
8.17105e-07
9.18574e-16
1.90846e-09
8.28988e-07
-8.98741e-10
1.90846e-09
8.28988e-07
-1.59397e-09
1.8041e-09
8.17105e-07
-1.92239e-09
1.59397e-09
7.9313e-07
-1.80508e-09
1.28056e-09
7.56059e-07
8.88542e-10
7.02477e-07
-1.30498e-09
2.06582e-09
5.07166e-10
7.33127e-07
-1.49807e-09
2.18581e-09
7.25152e-10
7.82635e-07
1.8041e-09
8.98742e-10
8.17105e-07
1.01435e-09
1.01435e-09
8.39614e-07
8.21803e-16
1.07152e-09
8.50835e-07
-1.01434e-09
1.07152e-09
8.50835e-07
-1.8041e-09
1.01435e-09
8.39614e-07
-2.18581e-09
8.98741e-10
8.17105e-07
-2.06582e-09
7.25151e-10
7.82635e-07
5.07165e-10
7.33127e-07
-1.49807e-09
2.19652e-09
4.91743e-16
7.4814e-07
-1.5916e-09
2.3177e-09
1.10783e-15
7.95702e-07
1.90846e-09
8.69986e-16
8.28988e-07
1.07152e-09
8.04791e-16
8.50835e-07
6.36475e-16
7.87601e-16
8.61753e-07
-1.07152e-09
7.1588e-16
8.61753e-07
-1.90846e-09
5.74308e-16
8.50835e-07
-2.3177e-09
4.06777e-16
8.28988e-07
-2.19652e-09
-2.63986e-17
7.95702e-07
-8.28144e-17
7.4814e-07
-1.5916e-09
2.19652e-09
-5.07165e-10
7.4814e-07
-1.5916e-09
2.3177e-09
-7.2515e-10
7.95702e-07
1.90846e-09
-8.9874e-10
8.28988e-07
1.07152e-09
-1.01434e-09
8.50835e-07
6.49576e-16
-1.07152e-09
8.61753e-07
-1.07152e-09
-1.07152e-09
8.61753e-07
-1.90846e-09
-1.01434e-09
8.50835e-07
-2.3177e-09
-8.9874e-10
8.28988e-07
-2.19652e-09
-7.25151e-10
7.95702e-07
-5.07165e-10
7.4814e-07
-1.5916e-09
2.06582e-09
-8.88542e-10
7.33127e-07
-1.49807e-09
2.18581e-09
-1.28056e-09
7.82635e-07
1.8041e-09
-1.59397e-09
8.17105e-07
1.01435e-09
-1.8041e-09
8.39614e-07
5.40916e-16
-1.90846e-09
8.50835e-07
-1.01434e-09
-1.90846e-09
8.50835e-07
-1.8041e-09
-1.8041e-09
8.39614e-07
-2.1858e-09
-1.59396e-09
8.17105e-07
-2.06582e-09
-1.28056e-09
7.82635e-07
-8.88542e-10
7.33127e-07
-1.49807e-09
1.80508e-09
-1.05846e-09
7.02477e-07
-1.30498e-09
1.92239e-09
-1.53742e-09
7.56059e-07
1.59397e-09
-1.92239e-09
7.9313e-07
8.98742e-10
-2.1858e-09
8.17105e-07
4.91084e-16
-2.3177e-09
8.28988e-07
-8.9874e-10
-2.3177e-09
8.28988e-07
-1.59396e-09
-2.1858e-09
8.17105e-07
-1.92239e-09
-1.92239e-09
7.9313e-07
-1.80508e-09
-1.53743e-09
7.56059e-07
-1.05846e-09
7.02477e-07
-1.30498e-09
1.43822e-09
-9.74341e-10
6.54744e-07
-1.05759e-09
1.53743e-09
-1.43822e-09
7.14579e-07
1.28056e-09
-1.80508e-09
7.56059e-07
7.25151e-10
-2.06582e-09
7.82635e-07
2.79335e-16
-2.19652e-09
7.95702e-07
-7.2515e-10
-2.19652e-09
7.95702e-07
-1.28056e-09
-2.06582e-09
7.82635e-07
-1.53742e-09
-1.80508e-09
7.56059e-07
-1.43822e-09
-1.43822e-09
7.14579e-07
-9.74341e-10
6.54744e-07
-1.05759e-09
9.74341e-10
5.88164e-07
-7.1638e-10
-7.16379e-10
1.05846e-09
6.54744e-07
-1.05759e-09
8.88542e-10
7.02477e-07
-1.30498e-09
5.07165e-10
7.33127e-07
-1.49807e-09
1.5927e-16
7.4814e-07
-1.5916e-09
-5.07164e-10
7.4814e-07
-1.5916e-09
-8.88542e-10
7.33127e-07
-1.49807e-09
-1.05846e-09
7.02477e-07
-1.30498e-09
-9.74341e-10
6.54744e-07
-1.05759e-09
5.88164e-07
-7.16379e-10
-7.1638e-10
2.29654e-10
2.29654e-10
5.87975e-07
-1.35393e-10
-1.35393e-10
2.78072e-10
3.89005e-10
6.54552e-07
-2.4518e-10
2.466e-10
5.20336e-10
7.02315e-07
-3.27258e-10
1.44985e-10
6.1823e-10
7.33005e-07
-3.95079e-10
9.77833e-17
6.67753e-10
7.48045e-07
-4.276e-10
-1.44985e-10
6.67753e-10
7.48045e-07
-4.276e-10
-2.466e-10
6.1823e-10
7.33005e-07
-3.95079e-10
-2.78072e-10
5.20336e-10
7.02315e-07
-3.27258e-10
-2.29655e-10
3.89006e-10
6.54552e-07
-2.4518e-10
2.29654e-10
5.87975e-07
-1.35394e-10
-1.35393e-10
3.89006e-10
2.78071e-10
6.54552e-07
-2.4518e-10
4.50175e-10
4.50174e-10
7.14456e-07
3.91281e-10
5.94918e-10
7.56043e-07
2.2666e-10
6.98396e-10
7.82719e-07
4.55207e-17
7.51101e-10
7.95846e-07
-2.2666e-10
7.51101e-10
7.95846e-07
-3.91281e-10
6.98396e-10
7.82719e-07
-4.50175e-10
5.94919e-10
7.56043e-07
-3.89006e-10
4.50175e-10
7.14456e-07
2.78071e-10
6.54552e-07
-2.4518e-10
5.20336e-10
2.466e-10
7.02315e-07
-3.27258e-10
5.94918e-10
3.9128e-10
7.56043e-07
5.1286e-10
5.1286e-10
7.93294e-07
2.95151e-10
5.98013e-10
8.17423e-07
-7.91419e-17
6.41204e-10
8.29393e-07
-2.95151e-10
6.41204e-10
8.29393e-07
-5.1286e-10
5.98013e-10
8.17423e-07
-5.94918e-10
5.12861e-10
7.93294e-07
-5.20336e-10
3.91281e-10
7.56043e-07
2.466e-10
7.02315e-07
-3.27258e-10
6.1823e-10
1.44985e-10
7.33005e-07
-3.95079e-10
6.98395e-10
2.2666e-10
7.82719e-07
5.98012e-10
2.95151e-10
8.17423e-07
3.42827e-10
3.42827e-10
8.40125e-07
-1.82201e-17
3.66962e-10
8.51452e-07
-3.42827e-10
3.66962e-10
8.51452e-07
-5.98012e-10
3.42827e-10
8.40125e-07
-6.98395e-10
2.95152e-10
8.17423e-07
-6.1823e-10
2.2666e-10
7.82719e-07