/*--------------------------------*- C++ -*----------------------------------*\
| =========                 |                                                 |
| \\      /  F ield         | OpenFOAM: The Open Source CFD Toolbox           |
|  \\    /   O peration     | Version:  2412                                  |
|   \\  /    A nd           | Website:  www.openfoam.com                      |
|    \\/     M anipulation  |                                                 |
\*---------------------------------------------------------------------------*/
FoamFile
{
    version     2.0;
    format      ascii;
    arch        "LSB;label=32;scalar=64";
    class       surfaceScalarField;
    location    "6.7";
    object      phi;
}
// * * * * * * * * * * * * * * * * * * * * * * * * * * * * * * * * * * * * * //

dimensions      [0 3 -1 0 0 0 0];

oriented        oriented;

internalField   nonuniform List<scalar> 
43700
(
1.86259e-07
1.86259e-07
5.49762e-07
-2.26131e-07
-2.26131e-07
1.38016e-07
1.65574e-07
5.94015e-07
-2.01962e-07
9.15064e-08
1.52162e-07
6.25497e-07
-1.91719e-07
4.54355e-08
1.43174e-07
6.4572e-07
-1.83111e-07
2.45165e-17
1.38834e-07
6.55658e-07
-1.79128e-07
-4.54355e-08
1.38834e-07
6.55658e-07
-1.79128e-07
-9.15064e-08
1.43174e-07
6.4572e-07
-1.83111e-07
-1.38016e-07
1.52162e-07
6.25497e-07
-1.91719e-07
-1.86259e-07
1.65574e-07
5.94015e-07
-2.01962e-07
1.86259e-07
5.49762e-07
-2.26131e-07
-2.26131e-07
1.65574e-07
1.38016e-07
5.94015e-07
-2.01962e-07
1.23285e-07
1.23285e-07
6.30422e-07
8.12629e-08
1.11996e-07
6.55879e-07
4.02432e-08
1.04411e-07
6.72279e-07
2.33381e-17
1.00686e-07
6.80363e-07
-4.02432e-08
1.00686e-07
6.80363e-07
-8.12629e-08
1.04411e-07
6.72279e-07
-1.23285e-07
1.11996e-07
6.55879e-07
-1.65574e-07
1.23285e-07
6.30422e-07
1.38016e-07
5.94015e-07
-2.01962e-07
1.52162e-07
9.15064e-08
6.25497e-07
-1.91719e-07
1.11996e-07
8.12629e-08
6.55879e-07
7.33081e-08
7.33081e-08
6.77249e-07
3.61822e-08
6.79523e-08
6.91147e-07
-1.0244e-16
6.5307e-08
6.98039e-07
-3.61822e-08
6.5307e-08
6.98039e-07
-7.33081e-08
6.79523e-08
6.91147e-07
-1.11996e-07
7.33081e-08
6.77249e-07
-1.52162e-07
8.12629e-08
6.55879e-07
9.15064e-08
6.25497e-07
-1.91719e-07
1.43174e-07
4.54355e-08
6.4572e-07
-1.83111e-07
1.04411e-07
4.02432e-08
6.72279e-07
6.79523e-08
3.61822e-08
6.91147e-07
3.3436e-08
3.3436e-08
7.03535e-07
1.90906e-17
3.20753e-08
7.0971e-07
-3.3436e-08
3.20753e-08
7.0971e-07
-6.79523e-08
3.3436e-08
7.03535e-07
-1.04411e-07
3.61822e-08
6.91147e-07
-1.43174e-07
4.02432e-08
6.72279e-07
4.54355e-08
6.4572e-07
-1.83111e-07
1.38834e-07
-3.08353e-16
6.55658e-07
-1.79128e-07
1.00686e-07
2.89208e-17
6.80363e-07
6.5307e-08
8.91168e-17
6.98039e-07
3.20753e-08
-3.42857e-17
7.0971e-07
-1.1915e-16
-1.75899e-16
7.15543e-07
-3.20753e-08
1.13765e-16
7.15543e-07
-6.5307e-08
5.6241e-17
7.0971e-07
-1.00686e-07
-8.39504e-17
6.98039e-07
-1.38834e-07
-1.06854e-16
6.80363e-07
-2.06724e-16
6.55658e-07
-1.79128e-07
1.38834e-07
-4.54355e-08
6.55658e-07
-1.79128e-07
1.00686e-07
-4.02432e-08
6.80363e-07
6.5307e-08
-3.61822e-08
6.98039e-07
3.20753e-08
-3.3436e-08
7.0971e-07
2.64987e-16
-3.20753e-08
7.15543e-07
-3.20753e-08
-3.20753e-08
7.15543e-07
-6.5307e-08
-3.3436e-08
7.0971e-07
-1.00686e-07
-3.61822e-08
6.98039e-07
-1.38834e-07
-4.02432e-08
6.80363e-07
-4.54355e-08
6.55658e-07
-1.79128e-07
1.43174e-07
-9.15064e-08
6.4572e-07
-1.83111e-07
1.04411e-07
-8.12629e-08
6.72279e-07
6.79523e-08
-7.33081e-08
6.91147e-07
3.3436e-08
-6.79523e-08
7.03535e-07
-1.24644e-16
-6.5307e-08
7.0971e-07
-3.3436e-08
-6.5307e-08
7.0971e-07
-6.79523e-08
-6.79523e-08
7.03535e-07
-1.04411e-07
-7.33081e-08
6.91147e-07
-1.43174e-07
-8.12629e-08
6.72279e-07
-9.15064e-08
6.4572e-07
-1.83111e-07
1.52162e-07
-1.38016e-07
6.25497e-07
-1.91719e-07
1.11996e-07
-1.23285e-07
6.55879e-07
7.33081e-08
-1.11996e-07
6.77249e-07
3.61822e-08
-1.04411e-07
6.91147e-07
-1.38104e-16
-1.00686e-07
6.98039e-07
-3.61822e-08
-1.00686e-07
6.98039e-07
-7.33081e-08
-1.04411e-07
6.91147e-07
-1.11996e-07
-1.11996e-07
6.77249e-07
-1.52162e-07
-1.23285e-07
6.55879e-07
-1.38016e-07
6.25497e-07
-1.91719e-07
1.65574e-07
-1.86259e-07
5.94015e-07
-2.01962e-07
1.23285e-07
-1.65574e-07
6.30422e-07
8.12629e-08
-1.52162e-07
6.55879e-07
4.02432e-08
-1.43174e-07
6.72279e-07
-3.83068e-17
-1.38834e-07
6.80363e-07
-4.02432e-08
-1.38834e-07
6.80363e-07
-8.12629e-08
-1.43174e-07
6.72279e-07
-1.23285e-07
-1.52162e-07
6.55879e-07
-1.65574e-07
-1.65574e-07
6.30422e-07
-1.86259e-07
5.94015e-07
-2.01962e-07
1.86259e-07
5.49762e-07
-2.26131e-07
-2.26131e-07
1.38016e-07
5.94015e-07
-2.01962e-07
9.15064e-08
6.25497e-07
-1.91719e-07
4.54355e-08
6.4572e-07
-1.83111e-07
-1.52507e-16
6.55658e-07
-1.79128e-07
-4.54355e-08
6.55658e-07
-1.79128e-07
-9.15064e-08
6.4572e-07
-1.83111e-07
-1.38016e-07
6.25497e-07
-1.91719e-07
-1.86259e-07
5.94015e-07
-2.01962e-07
5.49762e-07
-2.26131e-07
-2.26131e-07
1.25831e-07
1.25831e-07
5.8611e-07
-1.44005e-07
-1.44005e-07
9.8987e-08
1.23441e-07
6.41752e-07
-1.44334e-07
6.76445e-08
1.20046e-07
6.80057e-07
-1.43264e-07
3.41635e-08
1.16853e-07
7.0377e-07
-1.41421e-07
-4.41369e-16
1.15191e-07
7.15121e-07
-1.4049e-07
-3.41635e-08
1.15191e-07
7.15121e-07
-1.4049e-07
-6.76445e-08
1.16853e-07
7.0377e-07
-1.41421e-07
-9.8987e-08
1.20046e-07
6.80057e-07
-1.43264e-07
-1.25831e-07
1.23441e-07
6.41752e-07
-1.44334e-07
1.25831e-07
5.8611e-07
-1.44005e-07
-1.44005e-07
1.23441e-07
9.8987e-08
6.41752e-07
-1.44334e-07
9.52292e-08
9.52292e-08
6.86846e-07
6.41774e-08
9.11289e-08
7.15848e-07
3.2163e-08
8.78397e-08
7.33306e-07
-1.55267e-16
8.61418e-08
7.41575e-07
-3.2163e-08
8.61418e-08
7.41575e-07
-6.41774e-08
8.78397e-08
7.33306e-07
-9.52292e-08
9.11289e-08
7.15848e-07
-1.23441e-07
9.52292e-08
6.86846e-07
9.8987e-08
6.41752e-07
-1.44334e-07
1.20046e-07
6.76445e-08
6.80057e-07
-1.43264e-07
9.11289e-08
6.41774e-08
7.15848e-07
6.07546e-08
6.07546e-08
7.37997e-07
3.02878e-08
5.82077e-08
7.51246e-07
7.46545e-17
5.69132e-08
7.57556e-07
-3.02878e-08
5.69132e-08
7.57556e-07
-6.07546e-08
5.82077e-08
7.51246e-07
-9.11289e-08
6.07546e-08
7.37997e-07
-1.20046e-07
6.41774e-08
7.15848e-07
6.76445e-08
6.80057e-07
-1.43264e-07
1.16853e-07
3.41635e-08
7.0377e-07
-1.41421e-07
8.78397e-08
3.2163e-08
7.33306e-07
5.82077e-08
3.02878e-08
7.51246e-07
2.89369e-08
2.89369e-08
7.62077e-07
1.77072e-16
2.82561e-08
7.67304e-07
-2.89369e-08
2.82561e-08
7.67304e-07
-5.82077e-08
2.89369e-08
7.62077e-07
-8.78397e-08
3.02878e-08
7.51246e-07
-1.16853e-07
3.2163e-08
7.33306e-07
3.41635e-08
7.0377e-07
-1.41421e-07
1.15191e-07
8.13807e-17
7.15121e-07
-1.4049e-07
8.61418e-08
4.54473e-17
7.41575e-07
5.69132e-08
2.80605e-16
7.57556e-07
2.82561e-08
2.1927e-16
7.67304e-07
-8.86831e-17
-1.51607e-16
7.72055e-07
-2.82561e-08
1.11848e-16
7.72055e-07
-5.69132e-08
2.72044e-16
7.67304e-07
-8.61418e-08
-3.99046e-17
7.57556e-07
-1.15191e-07
-1.10368e-16
7.41575e-07
-1.9671e-17
7.15121e-07
-1.4049e-07
1.15191e-07
-3.41635e-08
7.15121e-07
-1.4049e-07
8.61418e-08
-3.2163e-08
7.41575e-07
5.69132e-08
-3.02878e-08
7.57556e-07
2.82561e-08
-2.89369e-08
7.67304e-07
1.6243e-16
-2.82561e-08
7.72055e-07
-2.82561e-08
-2.82561e-08
7.72055e-07
-5.69132e-08
-2.89369e-08
7.67304e-07
-8.61418e-08
-3.02878e-08
7.57556e-07
-1.15191e-07
-3.2163e-08
7.41575e-07
-3.41635e-08
7.15121e-07
-1.4049e-07
1.16853e-07
-6.76445e-08
7.0377e-07
-1.41421e-07
8.78397e-08
-6.41774e-08
7.33306e-07
5.82077e-08
-6.07546e-08
7.51246e-07
2.89369e-08
-5.82077e-08
7.62077e-07
1.12781e-16
-5.69132e-08
7.67304e-07
-2.89369e-08
-5.69132e-08
7.67304e-07
-5.82077e-08
-5.82077e-08
7.62077e-07
-8.78397e-08
-6.07546e-08
7.51246e-07
-1.16853e-07
-6.41774e-08
7.33306e-07
-6.76445e-08
7.0377e-07
-1.41421e-07
1.20046e-07
-9.8987e-08
6.80057e-07
-1.43264e-07
9.11289e-08
-9.52292e-08
7.15848e-07
6.07546e-08
-9.11289e-08
7.37997e-07
3.02878e-08
-8.78397e-08
7.51246e-07
2.22453e-16
-8.61418e-08
7.57556e-07
-3.02878e-08
-8.61418e-08
7.57556e-07
-6.07546e-08
-8.78397e-08
7.51246e-07
-9.11289e-08
-9.11289e-08
7.37997e-07
-1.20046e-07
-9.52292e-08
7.15848e-07
-9.8987e-08
6.80057e-07
-1.43264e-07
1.23441e-07
-1.25831e-07
6.41752e-07
-1.44334e-07
9.52292e-08
-1.23441e-07
6.86846e-07
6.41774e-08
-1.20046e-07
7.15848e-07
3.2163e-08
-1.16853e-07
7.33306e-07
2.6748e-16
-1.15191e-07
7.41575e-07
-3.2163e-08
-1.15191e-07
7.41575e-07
-6.41774e-08
-1.16853e-07
7.33306e-07
-9.52292e-08
-1.20046e-07
7.15848e-07
-1.23441e-07
-1.23441e-07
6.86846e-07
-1.25831e-07
6.41752e-07
-1.44334e-07
1.25831e-07
5.8611e-07
-1.44005e-07
-1.44005e-07
9.8987e-08
6.41752e-07
-1.44334e-07
6.76445e-08
6.80057e-07
-1.43264e-07
3.41635e-08
7.0377e-07
-1.41421e-07
5.44145e-17
7.15121e-07
-1.4049e-07
-3.41635e-08
7.15121e-07
-1.4049e-07
-6.76445e-08
7.0377e-07
-1.41421e-07
-9.8987e-08
6.80057e-07
-1.43264e-07
-1.25831e-07
6.41752e-07
-1.44334e-07
5.8611e-07
-1.44005e-07
-1.44005e-07
9.1023e-08
9.1023e-08
5.96108e-07
-9.60216e-08
-9.60216e-08
7.6221e-08
9.59216e-08
6.63304e-07
-1.02671e-07
5.42789e-08
9.79106e-08
7.09994e-07
-1.05906e-07
2.81076e-08
9.82883e-08
7.38963e-07
-1.0731e-07
-3.25584e-16
9.83044e-08
7.52799e-07
-1.07875e-07
-2.81076e-08
9.83044e-08
7.52799e-07
-1.07875e-07
-5.42789e-08
9.82883e-08
7.38963e-07
-1.0731e-07
-7.6221e-08
9.79106e-08
7.09994e-07
-1.05906e-07
-9.1023e-08
9.59216e-08
6.63304e-07
-1.02671e-07
9.1023e-08
5.96107e-07
-9.60216e-08
-9.60216e-08
9.59216e-08
7.6221e-08
6.63304e-07
-1.02671e-07
7.9077e-08
7.9077e-08
7.20535e-07
5.58032e-08
7.98502e-08
7.57182e-07
2.87473e-08
7.96393e-08
7.79011e-07
4.35487e-16
7.93789e-08
7.89248e-07
-2.87473e-08
7.93789e-08
7.89248e-07
-5.58032e-08
7.96393e-08
7.79011e-07
-7.9077e-08
7.98502e-08
7.57182e-07
-9.59216e-08
7.9077e-08
7.20535e-07
7.6221e-08
6.63304e-07
-1.02671e-07
9.79106e-08
5.42789e-08
7.09994e-07
-1.05906e-07
7.98502e-08
5.58032e-08
7.57182e-07
5.59486e-08
5.59486e-08
7.85801e-07
2.87244e-08
5.5584e-08
8.02526e-07
7.58643e-16
5.52959e-08
8.10363e-07
-2.87244e-08
5.52959e-08
8.10363e-07
-5.59486e-08
5.5584e-08
8.02526e-07
-7.98502e-08
5.59486e-08
7.85801e-07
-9.79106e-08
5.58032e-08
7.57182e-07
5.42789e-08
7.09994e-07
-1.05906e-07
9.82883e-08
2.81076e-08
7.38963e-07
-1.0731e-07
7.96393e-08
2.87473e-08
7.79011e-07
5.5584e-08
2.87244e-08
8.02526e-07
2.84886e-08
2.84886e-08
8.16268e-07
5.79693e-16
2.83179e-08
8.2277e-07
-2.84886e-08
2.83179e-08
8.2277e-07
-5.5584e-08
2.84886e-08
8.16268e-07
-7.96393e-08
2.87244e-08
8.02526e-07
-9.82883e-08
2.87473e-08
7.79011e-07
2.81076e-08
7.38963e-07
-1.0731e-07
9.83044e-08
-1.68784e-16
7.52799e-07
-1.07875e-07
7.93789e-08
4.84964e-16
7.89248e-07
5.52959e-08
8.41897e-16
8.10363e-07
2.83179e-08
8.57276e-16
8.2277e-07
3.23074e-16
5.79027e-16
8.28691e-07
-2.83179e-08
7.51855e-16
8.28691e-07
-5.52959e-08
9.46745e-16
8.2277e-07
-7.93789e-08
2.48069e-16
8.10363e-07
-9.83044e-08
-4.99272e-16
7.89248e-07
-3.44667e-16
7.52799e-07
-1.07875e-07
9.83044e-08
-2.81076e-08
7.52799e-07
-1.07875e-07
7.93789e-08
-2.87473e-08
7.89248e-07
5.52959e-08
-2.87244e-08
8.10363e-07
2.83179e-08
-2.84886e-08
8.2277e-07
6.52354e-16
-2.83179e-08
8.28691e-07
-2.83179e-08
-2.83179e-08
8.28691e-07
-5.52959e-08
-2.84886e-08
8.2277e-07
-7.93789e-08
-2.87244e-08
8.10363e-07
-9.83044e-08
-2.87473e-08
7.89248e-07
-2.81076e-08
7.52799e-07
-1.07875e-07
9.82883e-08
-5.42789e-08
7.38963e-07
-1.0731e-07
7.96393e-08
-5.58032e-08
7.79011e-07
5.5584e-08
-5.59486e-08
8.02526e-07
2.84886e-08
-5.5584e-08
8.16268e-07
3.61221e-16
-5.52959e-08
8.2277e-07
-2.84886e-08
-5.52959e-08
8.2277e-07
-5.5584e-08
-5.5584e-08
8.16268e-07
-7.96393e-08
-5.59486e-08
8.02526e-07
-9.82883e-08
-5.58032e-08
7.79011e-07
-5.42789e-08
7.38963e-07
-1.0731e-07
9.79106e-08
-7.6221e-08
7.09994e-07
-1.05906e-07
7.98502e-08
-7.9077e-08
7.57182e-07
5.59486e-08
-7.98502e-08
7.85801e-07
2.87244e-08
-7.96393e-08
8.02526e-07
-1.2889e-16
-7.93789e-08
8.10363e-07
-2.87244e-08
-7.93789e-08
8.10363e-07
-5.59486e-08
-7.96393e-08
8.02526e-07
-7.98502e-08
-7.98502e-08
7.85801e-07
-9.79106e-08
-7.9077e-08
7.57182e-07
-7.6221e-08
7.09994e-07
-1.05906e-07
9.59216e-08
-9.1023e-08
6.63304e-07
-1.02671e-07
7.9077e-08
-9.59216e-08
7.20535e-07
5.58032e-08
-9.79106e-08
7.57182e-07
2.87473e-08
-9.82883e-08
7.79011e-07
-4.88307e-16
-9.83044e-08
7.89248e-07
-2.87473e-08
-9.83044e-08
7.89248e-07
-5.58032e-08
-9.82883e-08
7.79011e-07
-7.9077e-08
-9.79106e-08
7.57182e-07
-9.59216e-08
-9.59216e-08
7.20535e-07
-9.1023e-08
6.63304e-07
-1.02671e-07
9.1023e-08
5.96107e-07
-9.60216e-08
-9.60216e-08
7.6221e-08
6.63304e-07
-1.02671e-07
5.42789e-08
7.09994e-07
-1.05906e-07
2.81076e-08
7.38963e-07
-1.0731e-07
-2.41294e-16
7.52799e-07
-1.07875e-07
-2.81076e-08
7.52799e-07
-1.07875e-07
-5.42789e-08
7.38963e-07
-1.0731e-07
-7.6221e-08
7.09994e-07
-1.05906e-07
-9.1023e-08
6.63304e-07
-1.02671e-07
5.96107e-07
-9.60216e-08
-9.60216e-08
4.12713e-08
4.12713e-08
5.95428e-07
-4.09316e-08
-4.09316e-08
3.66071e-08
4.72616e-08
6.67797e-07
-4.70904e-08
2.7103e-08
5.10595e-08
7.19111e-07
-5.06718e-08
1.43825e-08
5.32031e-08
7.51406e-07
-5.29252e-08
-1.83842e-16
5.41771e-08
7.66952e-07
-5.39475e-08
-1.43825e-08
5.41771e-08
7.66952e-07
-5.39475e-08
-2.7103e-08
5.32031e-08
7.51406e-07
-5.29252e-08
-3.66071e-08
5.10595e-08
7.19111e-07
-5.06718e-08
-4.12713e-08
4.72616e-08
6.67797e-07
-4.70904e-08
4.12713e-08
5.95428e-07
-4.09316e-08
-4.09316e-08
4.72616e-08
3.66071e-08
6.67797e-07
-4.70904e-08
4.13989e-08
4.13989e-08
7.3226e-07
3.04981e-08
4.45094e-08
7.74633e-07
1.61241e-08
4.62359e-08
8.00352e-07
9.68977e-16
4.70051e-08
8.12544e-07
-1.61241e-08
4.70051e-08
8.12544e-07
-3.04981e-08
4.6236e-08
8.00352e-07
-4.13989e-08
4.45094e-08
7.74633e-07
-4.72616e-08
4.13989e-08
7.3226e-07
3.66071e-08
6.67797e-07
-4.70904e-08
5.10595e-08
2.7103e-08
7.19111e-07
-5.06718e-08
4.45094e-08
3.04981e-08
7.74633e-07
3.26613e-08
3.26613e-08
8.09497e-07
1.72302e-08
3.38517e-08
8.30341e-07
1.02926e-15
3.43733e-08
8.40225e-07
-1.72302e-08
3.43733e-08
8.40225e-07
-3.26613e-08
3.38517e-08
8.30341e-07
-4.45094e-08
3.26613e-08
8.09497e-07
-5.10595e-08
3.04981e-08
7.74633e-07
2.7103e-08
7.19111e-07
-5.06718e-08
5.32031e-08
1.43825e-08
7.51406e-07
-5.29252e-08
4.6236e-08
1.61241e-08
8.00352e-07
3.38517e-08
1.72302e-08
8.30341e-07
1.78379e-08
1.78379e-08
8.48295e-07
7.36161e-16
1.81018e-08
8.5688e-07
-1.78379e-08
1.81018e-08
8.5688e-07
-3.38517e-08
1.78379e-08
8.48295e-07
-4.62359e-08
1.72302e-08
8.30341e-07
-5.32031e-08
1.61241e-08
8.00352e-07
1.43825e-08
7.51406e-07
-5.29252e-08
5.41771e-08
2.52e-16
7.66952e-07
-5.39475e-08
4.70051e-08
1.27801e-15
8.12544e-07
3.43733e-08
1.09623e-15
8.40225e-07
1.81018e-08
9.254e-16
8.5688e-07
7.32296e-16
9.40726e-16
8.64895e-07
-1.81018e-08
1.21416e-15
8.64895e-07
-3.43733e-08
1.37461e-15
8.5688e-07
-4.70051e-08
6.42437e-16
8.40225e-07
-5.41771e-08
-5.31372e-16
8.12544e-07
-8.38042e-16
7.66952e-07
-5.39475e-08
5.41771e-08
-1.43825e-08
7.66952e-07
-5.39475e-08
4.70051e-08
-1.61241e-08
8.12544e-07
3.43733e-08
-1.72302e-08
8.40225e-07
1.81018e-08
-1.78379e-08
8.5688e-07
1.12087e-15
-1.81018e-08
8.64895e-07
-1.81018e-08
-1.81018e-08
8.64895e-07
-3.43733e-08
-1.78379e-08
8.5688e-07
-4.70051e-08
-1.72302e-08
8.40225e-07
-5.41771e-08
-1.61241e-08
8.12544e-07
-1.43825e-08
7.66952e-07
-5.39475e-08
5.32031e-08
-2.7103e-08
7.51406e-07
-5.29252e-08
4.6236e-08
-3.04981e-08
8.00352e-07
3.38517e-08
-3.26613e-08
8.30341e-07
1.78379e-08
-3.38517e-08
8.48295e-07
1.02895e-15
-3.43733e-08
8.5688e-07
-1.78379e-08
-3.43733e-08
8.5688e-07
-3.38517e-08
-3.38517e-08
8.48295e-07
-4.62359e-08
-3.26613e-08
8.30341e-07
-5.32031e-08
-3.04981e-08
8.00352e-07
-2.7103e-08
7.51406e-07
-5.29252e-08
5.10595e-08
-3.66071e-08
7.19111e-07
-5.06718e-08
4.45094e-08
-4.13989e-08
7.74633e-07
3.26613e-08
-4.45094e-08
8.09497e-07
1.72302e-08
-4.62359e-08
8.30341e-07
4.63215e-16
-4.70051e-08
8.40225e-07
-1.72302e-08
-4.70051e-08
8.40225e-07
-3.26613e-08
-4.62359e-08
8.30341e-07
-4.45094e-08
-4.45094e-08
8.09497e-07
-5.10595e-08
-4.13989e-08
7.74633e-07
-3.66071e-08
7.19111e-07
-5.06718e-08
4.72616e-08
-4.12713e-08
6.67797e-07
-4.70904e-08
4.13989e-08
-4.72616e-08
7.3226e-07
3.04981e-08
-5.10595e-08
7.74633e-07
1.61241e-08
-5.32031e-08
8.00352e-07
-5.57359e-16
-5.41771e-08
8.12544e-07
-1.61241e-08
-5.41771e-08
8.12544e-07
-3.04981e-08
-5.32031e-08
8.00352e-07
-4.13989e-08
-5.10595e-08
7.74633e-07
-4.72616e-08
-4.72616e-08
7.3226e-07
-4.12713e-08
6.67797e-07
-4.70904e-08
4.12713e-08
5.95428e-07
-4.09316e-08
-4.09316e-08
3.66071e-08
6.67797e-07
-4.70904e-08
2.7103e-08
7.19111e-07
-5.06718e-08
1.43825e-08
7.51406e-07
-5.29252e-08
-5.79529e-16
7.66952e-07
-5.39475e-08
-1.43825e-08
7.66952e-07
-5.39475e-08
-2.7103e-08
7.51406e-07
-5.29252e-08
-3.66071e-08
7.19111e-07
-5.06718e-08
-4.12713e-08
6.67797e-07
-4.70904e-08
5.95428e-07
-4.09316e-08
-4.09316e-08
1.86858e-08
1.86858e-08
5.93227e-07
-1.75851e-08
-1.75851e-08
1.71574e-08
2.22761e-08
6.67835e-07
-2.07863e-08
1.30412e-08
2.48275e-08
7.21368e-07
-2.29686e-08
7.0322e-09
2.64325e-08
7.55395e-07
-2.44126e-08
1.70112e-16
2.71942e-08
7.71876e-07
-2.50861e-08
-7.0322e-09
2.71942e-08
7.71876e-07
-2.50861e-08
-1.30412e-08
2.64325e-08
7.55395e-07
-2.44126e-08
-1.71574e-08
2.48275e-08
7.21368e-07
-2.29686e-08
-1.86858e-08
2.22761e-08
6.67835e-07
-2.07863e-08
1.86858e-08
5.93227e-07
-1.75851e-08
-1.75851e-08
2.22761e-08
1.71574e-08
6.67835e-07
-2.07863e-08
2.04185e-08
2.04185e-08
7.35975e-07
1.55091e-08
2.27618e-08
7.81608e-07
8.34936e-09
2.42036e-08
8.09741e-07
9.70382e-16
2.4883e-08
8.23205e-07
-8.34936e-09
2.4883e-08
8.23205e-07
-1.55091e-08
2.42036e-08
8.09741e-07
-2.04185e-08
2.27618e-08
7.81608e-07
-2.22761e-08
2.04185e-08
7.35975e-07
1.71574e-08
6.67835e-07
-2.07863e-08
2.48275e-08
1.30412e-08
7.21368e-07
-2.29686e-08
2.27618e-08
1.55091e-08
7.81608e-07
1.72693e-08
1.72693e-08
8.20482e-07
9.28407e-09
1.83357e-08
8.44194e-07
9.75694e-16
1.88314e-08
8.55561e-07
-9.28407e-09
1.88314e-08
8.55561e-07
-1.72693e-08
1.83357e-08
8.44194e-07
-2.27618e-08
1.72693e-08
8.20482e-07
-2.48275e-08
1.55091e-08
7.81608e-07
1.30412e-08
7.21368e-07
-2.29686e-08
2.64325e-08
7.0322e-09
7.55395e-07
-2.44126e-08
2.42036e-08
8.34936e-09
8.09741e-07
1.83357e-08
9.28407e-09
8.44194e-07
9.84692e-09
9.84692e-09
8.65273e-07
6.79086e-16
1.01063e-08
8.75452e-07
-9.84692e-09
1.01063e-08
8.75452e-07
-1.83357e-08
9.84692e-09
8.65273e-07
-2.42036e-08
9.28407e-09
8.44194e-07
-2.64325e-08
8.34936e-09
8.09741e-07
7.0322e-09
7.55395e-07
-2.44126e-08
2.71942e-08
3.75286e-16
7.71876e-07
-2.50861e-08
2.4883e-08
1.30061e-15
8.23205e-07
1.88314e-08
1.31468e-15
8.55561e-07
1.01063e-08
1.06078e-15
8.75452e-07
6.886e-16
1.03374e-15
8.85108e-07
-1.01063e-08
1.20895e-15
8.85108e-07
-1.88314e-08
1.09712e-15
8.75452e-07
-2.4883e-08
5.5334e-16
8.55561e-07
-2.71942e-08
-7.06028e-17
8.23205e-07
-3.99015e-16
7.71876e-07
-2.50861e-08
2.71942e-08
-7.0322e-09
7.71876e-07
-2.50861e-08
2.4883e-08
-8.34936e-09
8.23205e-07
1.88314e-08
-9.28407e-09
8.55561e-07
1.01063e-08
-9.84692e-09
8.75452e-07
8.94666e-16
-1.01063e-08
8.85108e-07
-1.01063e-08
-1.01063e-08
8.85108e-07
-1.88314e-08
-9.84691e-09
8.75452e-07
-2.4883e-08
-9.28407e-09
8.55561e-07
-2.71942e-08
-8.34936e-09
8.23205e-07
-7.0322e-09
7.71876e-07
-2.50861e-08
2.64325e-08
-1.30412e-08
7.55395e-07
-2.44126e-08
2.42036e-08
-1.55091e-08
8.09741e-07
1.83357e-08
-1.72693e-08
8.44194e-07
9.84692e-09
-1.83357e-08
8.65273e-07
7.34824e-16
-1.88314e-08
8.75452e-07
-9.84692e-09
-1.88314e-08
8.75452e-07
-1.83357e-08
-1.83357e-08
8.65273e-07
-2.42036e-08
-1.72693e-08
8.44194e-07
-2.64325e-08
-1.55091e-08
8.09741e-07
-1.30412e-08
7.55395e-07
-2.44126e-08
2.48275e-08
-1.71574e-08
7.21368e-07
-2.29686e-08
2.27618e-08
-2.04185e-08
7.81608e-07
1.72693e-08
-2.27618e-08
8.20482e-07
9.28407e-09
-2.42036e-08
8.44194e-07
2.01991e-16
-2.4883e-08
8.55561e-07
-9.28407e-09
-2.4883e-08
8.55561e-07
-1.72693e-08
-2.42036e-08
8.44194e-07
-2.27618e-08
-2.27618e-08
8.20482e-07
-2.48275e-08
-2.04185e-08
7.81608e-07
-1.71574e-08
7.21368e-07
-2.29686e-08
2.22761e-08
-1.86858e-08
6.67835e-07
-2.07863e-08
2.04185e-08
-2.22761e-08
7.35975e-07
1.55091e-08
-2.48275e-08
7.81608e-07
8.34936e-09
-2.64325e-08
8.09741e-07
-2.95994e-16
-2.71942e-08
8.23205e-07
-8.34936e-09
-2.71942e-08
8.23205e-07
-1.55091e-08
-2.64325e-08
8.09741e-07
-2.04185e-08
-2.48275e-08
7.81608e-07
-2.22761e-08
-2.22761e-08
7.35975e-07
-1.86858e-08
6.67835e-07
-2.07863e-08
1.86858e-08
5.93227e-07
-1.75851e-08
-1.75851e-08
1.71574e-08
6.67835e-07
-2.07863e-08
1.30412e-08
7.21368e-07
-2.29686e-08
7.0322e-09
7.55395e-07
-2.44126e-08
-1.83492e-16
7.71876e-07
-2.50861e-08
-7.0322e-09
7.71876e-07
-2.50861e-08
-1.30412e-08
7.55395e-07
-2.44126e-08
-1.71574e-08
7.21368e-07
-2.29686e-08
-1.86858e-08
6.67835e-07
-2.07863e-08
5.93227e-07
-1.75851e-08
-1.75851e-08
6.84199e-09
6.84199e-09
5.91378e-07
-5.91773e-09
-5.91773e-09
6.68622e-09
8.82189e-09
6.66657e-07
-7.48803e-09
5.3004e-09
1.0352e-08
7.21061e-07
-8.65905e-09
2.92972e-09
1.1384e-08
7.55866e-07
-9.48499e-09
8.80237e-17
1.18902e-08
7.72798e-07
-9.88222e-09
-2.92972e-09
1.18902e-08
7.72798e-07
-9.88222e-09
-5.3004e-09
1.1384e-08
7.55866e-07
-9.48499e-09
-6.68621e-09
1.0352e-08
7.21061e-07
-8.65904e-09
-6.84199e-09
8.82189e-09
6.66657e-07
-7.48803e-09
6.84199e-09
5.91378e-07
-5.91773e-09
-5.91773e-09
8.82189e-09
6.68621e-09
6.66657e-07
-7.48803e-09
8.63814e-09
8.63814e-09
7.36343e-07
6.84701e-09
1.01527e-08
7.83599e-07
3.77648e-09
1.11464e-08
8.13049e-07
4.48741e-16
1.16311e-08
8.2724e-07
-3.77648e-09
1.16311e-08
8.2724e-07
-6.84701e-09
1.11464e-08
8.13049e-07
-8.63814e-09
1.01527e-08
7.83599e-07
-8.82189e-09
8.63814e-09
7.36343e-07
6.68621e-09
6.66657e-07
-7.48803e-09
1.0352e-08
5.3004e-09
7.21061e-07
-8.65904e-09
1.01527e-08
6.84701e-09
7.83599e-07
8.03601e-09
8.03601e-09
8.24715e-07
4.42216e-09
8.80096e-09
8.50154e-07
3.67869e-16
9.16928e-09
8.62445e-07
-4.42216e-09
9.16928e-09
8.62445e-07
-8.03601e-09
8.80096e-09
8.50154e-07
-1.01527e-08
8.03601e-09
8.24715e-07
-1.0352e-08
6.84701e-09
7.83599e-07
5.3004e-09
7.21061e-07
-8.65904e-09
1.1384e-08
2.92972e-09
7.55866e-07
-9.48499e-09
1.11464e-08
3.77648e-09
8.13049e-07
8.80096e-09
4.42216e-09
8.50154e-07
4.8337e-09
4.8337e-09
8.73208e-07
3.70006e-16
5.03026e-09
8.84424e-07
-4.8337e-09
5.03026e-09
8.84424e-07
-8.80096e-09
4.8337e-09
8.73208e-07
-1.11464e-08
4.42216e-09
8.50154e-07
-1.1384e-08
3.77648e-09
8.13049e-07
2.92972e-09
7.55866e-07
-9.48499e-09
1.18902e-08
2.05047e-16
7.72798e-07
-9.88222e-09
1.16311e-08
7.59724e-16
8.2724e-07
9.16928e-09
6.53347e-16
8.62445e-07
5.03026e-09
5.11338e-16
8.84424e-07
6.67879e-16
6.68211e-16
8.95168e-07
-5.03026e-09
1.03917e-15
8.95168e-07
-9.16928e-09
1.03017e-15
8.84424e-07
-1.16311e-08
7.03993e-16
8.62445e-07
-1.18902e-08
2.2738e-16
8.2724e-07
-2.53942e-16
7.72798e-07
-9.88222e-09
1.18902e-08
-2.92972e-09
7.72798e-07
-9.88222e-09
1.16311e-08
-3.77648e-09
8.2724e-07
9.16928e-09
-4.42216e-09
8.62445e-07
5.03026e-09
-4.8337e-09
8.84424e-07
9.64759e-16
-5.03026e-09
8.95168e-07
-5.03026e-09
-5.03026e-09
8.95168e-07
-9.16928e-09
-4.8337e-09
8.84424e-07
-1.16311e-08
-4.42216e-09
8.62445e-07
-1.18902e-08
-3.77648e-09
8.2724e-07
-2.92972e-09
7.72798e-07
-9.88222e-09
1.1384e-08
-5.3004e-09
7.55866e-07
-9.48499e-09
1.11464e-08
-6.84701e-09
8.13049e-07
8.80096e-09
-8.03601e-09
8.50154e-07
4.8337e-09
-8.80096e-09
8.73208e-07
9.94211e-16
-9.16928e-09
8.84424e-07
-4.8337e-09
-9.16928e-09
8.84424e-07
-8.80096e-09
-8.80096e-09
8.73208e-07
-1.11464e-08
-8.036e-09
8.50154e-07
-1.1384e-08
-6.84701e-09
8.13049e-07
-5.3004e-09
7.55866e-07
-9.48499e-09
1.0352e-08
-6.68621e-09
7.21061e-07
-8.65904e-09
1.01527e-08
-8.63814e-09
7.83599e-07
8.03601e-09
-1.01527e-08
8.24715e-07
4.42216e-09
-1.11464e-08
8.50154e-07
6.28054e-16
-1.16311e-08
8.62445e-07
-4.42216e-09
-1.16311e-08
8.62445e-07
-8.03601e-09
-1.11464e-08
8.50154e-07
-1.01527e-08
-1.01527e-08
8.24715e-07
-1.0352e-08
-8.63814e-09
7.83599e-07
-6.68621e-09
7.21061e-07
-8.65904e-09
8.82189e-09
-6.84199e-09
6.66657e-07
-7.48803e-09
8.63814e-09
-8.82189e-09
7.36343e-07
6.84701e-09
-1.0352e-08
7.83599e-07
3.77648e-09
-1.1384e-08
8.13049e-07
1.05885e-16
-1.18902e-08
8.2724e-07
-3.77648e-09
-1.18902e-08
8.2724e-07
-6.84701e-09
-1.1384e-08
8.13049e-07
-8.63814e-09
-1.0352e-08
7.83599e-07
-8.82189e-09
-8.82189e-09
7.36343e-07
-6.84199e-09
6.66657e-07
-7.48803e-09
6.84199e-09
5.91378e-07
-5.91773e-09
-5.91773e-09
6.68621e-09
6.66657e-07
-7.48803e-09
5.3004e-09
7.21061e-07
-8.65904e-09
2.92972e-09
7.55866e-07
-9.48499e-09
-4.11234e-17
7.72798e-07
-9.88222e-09
-2.92972e-09
7.72798e-07
-9.88222e-09
-5.3004e-09
7.55866e-07
-9.48499e-09
-6.68621e-09
7.21061e-07
-8.65904e-09
-6.84199e-09
6.66657e-07
-7.48803e-09
5.91378e-07
-5.91773e-09
-5.91773e-09
2.03157e-09
2.03157e-09
5.90455e-07
-1.57018e-09
-1.57018e-09
2.14703e-09
2.9002e-09
6.65826e-07
-2.18471e-09
1.78769e-09
3.62607e-09
7.20473e-07
-2.67848e-09
1.01644e-09
4.14748e-09
7.55544e-07
-3.05356e-09
2.04204e-16
4.41035e-09
7.72642e-07
-3.23797e-09
-1.01644e-09
4.41035e-09
7.72642e-07
-3.23797e-09
-1.78769e-09
4.14748e-09
7.55544e-07
-3.05356e-09
-2.14703e-09
3.62607e-09
7.20473e-07
-2.67848e-09
-2.03156e-09
2.9002e-09
6.65826e-07
-2.18471e-09
2.03157e-09
5.90455e-07
-1.57017e-09
-1.57018e-09
2.9002e-09
2.14703e-09
6.65826e-07
-2.18471e-09
3.07037e-09
3.07037e-09
7.36002e-07
2.55369e-09
3.84188e-09
7.839e-07
1.44648e-09
4.37814e-09
8.13925e-07
3.84567e-16
4.64722e-09
8.2845e-07
-1.44648e-09
4.64722e-09
8.2845e-07
-2.55369e-09
4.37814e-09
8.13925e-07
-3.07037e-09
3.84188e-09
7.839e-07
-2.9002e-09
3.07037e-09
7.36002e-07
2.14703e-09
6.65826e-07
-2.18471e-09
3.62607e-09
1.78769e-09
7.20473e-07
-2.67848e-09
3.84188e-09
2.55369e-09
7.839e-07
3.18513e-09
3.18513e-09
8.26029e-07
1.79704e-09
3.61418e-09
8.52306e-07
5.30335e-16
3.827e-09
8.65062e-07
-1.79704e-09
3.827e-09
8.65062e-07
-3.18513e-09
3.61418e-09
8.52306e-07
-3.84188e-09
3.18513e-09
8.26029e-07
-3.62607e-09
2.55369e-09
7.839e-07
1.78769e-09
7.20473e-07
-2.67848e-09
4.14748e-09
1.01644e-09
7.55544e-07
-3.05356e-09
4.37814e-09
1.44648e-09
8.13925e-07
3.61418e-09
1.79704e-09
8.52306e-07
2.03255e-09
2.03255e-09
8.76371e-07
5.80477e-16
2.14852e-09
8.88135e-07
-2.03254e-09
2.14852e-09
8.88135e-07
-3.61418e-09
2.03255e-09
8.76371e-07
-4.37814e-09
1.79704e-09
8.52306e-07
-4.14748e-09
1.44648e-09
8.13925e-07
1.01644e-09
7.55544e-07
-3.05356e-09
4.41035e-09
9.35582e-17
7.72642e-07
-3.23797e-09
4.64722e-09
4.65888e-16
8.2845e-07
3.827e-09
7.63544e-16
8.65062e-07
2.14852e-09
7.7202e-16
8.88135e-07
6.74273e-16
7.42159e-16
8.99465e-07
-2.14852e-09
7.04473e-16
8.99465e-07
-3.827e-09
5.48861e-16
8.88135e-07
-4.64722e-09
4.22026e-16
8.65062e-07
-4.41035e-09
2.48074e-16
8.2845e-07
-5.49182e-19
7.72642e-07
-3.23797e-09
4.41035e-09
-1.01644e-09
7.72642e-07
-3.23797e-09
4.64722e-09
-1.44648e-09
8.2845e-07
3.827e-09
-1.79704e-09
8.65062e-07
2.14852e-09
-2.03254e-09
8.88135e-07
5.29604e-16
-2.14852e-09
8.99465e-07
-2.14852e-09
-2.14852e-09
8.99465e-07
-3.827e-09
-2.03254e-09
8.88135e-07
-4.64722e-09
-1.79704e-09
8.65062e-07
-4.41035e-09
-1.44648e-09
8.2845e-07
-1.01644e-09
7.72642e-07
-3.23797e-09
4.14748e-09
-1.78769e-09
7.55544e-07
-3.05356e-09
4.37814e-09
-2.55369e-09
8.13925e-07
3.61418e-09
-3.18513e-09
8.52306e-07
2.03255e-09
-3.61418e-09
8.76371e-07
4.79488e-16
-3.827e-09
8.88135e-07
-2.03254e-09
-3.827e-09
8.88135e-07
-3.61418e-09
-3.61418e-09
8.76371e-07
-4.37814e-09
-3.18513e-09
8.52306e-07
-4.14748e-09
-2.55369e-09
8.13925e-07
-1.78769e-09
7.55544e-07
-3.05356e-09
3.62607e-09
-2.14703e-09
7.20473e-07
-2.67848e-09
3.84188e-09
-3.07037e-09
7.839e-07
3.18513e-09
-3.84188e-09
8.26029e-07
1.79704e-09
-4.37814e-09
8.52306e-07
2.94553e-16
-4.64722e-09
8.65062e-07
-1.79704e-09
-4.64722e-09
8.65062e-07
-3.18513e-09
-4.37814e-09
8.52306e-07
-3.84188e-09
-3.84188e-09
8.26029e-07
-3.62607e-09
-3.07037e-09
7.839e-07
-2.14703e-09
7.20473e-07
-2.67848e-09
2.9002e-09
-2.03156e-09
6.65826e-07
-2.18471e-09
3.07037e-09
-2.9002e-09
7.36002e-07
2.55369e-09
-3.62607e-09
7.839e-07
1.44648e-09
-4.14748e-09
8.13925e-07
-3.86557e-17
-4.41035e-09
8.2845e-07
-1.44648e-09
-4.41035e-09
8.2845e-07
-2.55369e-09
-4.14748e-09
8.13925e-07
-3.07037e-09
-3.62607e-09
7.839e-07
-2.9002e-09
-2.9002e-09
7.36002e-07
-2.03156e-09
6.65826e-07
-2.18471e-09
2.03157e-09
5.90455e-07
-1.57018e-09
-1.57018e-09
2.14703e-09
6.65826e-07
-2.18471e-09
1.78769e-09
7.20473e-07
-2.67848e-09
1.01644e-09
7.55544e-07
-3.05356e-09
-2.64876e-16
7.72642e-07
-3.23797e-09
-1.01644e-09
7.72642e-07
-3.23797e-09
-1.78769e-09
7.55544e-07
-3.05356e-09
-2.14703e-09
7.20473e-07
-2.67848e-09
-2.03156e-09
6.65826e-07
-2.18471e-09
5.90455e-07
-1.57017e-09
-1.57017e-09
5.01324e-10
5.01323e-10
5.90075e-07
-3.1118e-10
-3.11179e-10
5.94664e-10
8.26189e-10
6.65426e-07
-5.18896e-10
5.28475e-10
1.11463e-09
7.20123e-07
-6.98784e-10
3.11006e-10
1.33215e-09
7.55271e-07
-8.41661e-10
1.04871e-16
1.44386e-09
7.72422e-07
-9.13078e-10
-3.11006e-10
1.44386e-09
7.72422e-07
-9.13078e-10
-5.28475e-10
1.33214e-09
7.55271e-07
-8.4166e-10
-5.94664e-10
1.11463e-09
7.20123e-07
-6.98784e-10
-5.01324e-10
8.26189e-10
6.65426e-07
-5.18895e-10
5.01324e-10
5.90075e-07
-3.11179e-10
-3.1118e-10
8.26189e-10
5.94664e-10
6.65426e-07
-5.18895e-10
9.62965e-10
9.62965e-10
7.35729e-07
8.44805e-10
1.28791e-09
7.83845e-07
4.92118e-10
1.52408e-09
8.14086e-07
1.61408e-16
1.64501e-09
8.28741e-07
-4.92118e-10
1.64501e-09
8.28741e-07
-8.44805e-10
1.52408e-09
8.14086e-07
-9.62965e-10
1.28791e-09
7.83845e-07
-8.26189e-10
9.62965e-10
7.35729e-07
5.94664e-10
6.65426e-07
-5.18895e-10
1.11463e-09
5.28474e-10
7.20123e-07
-6.98784e-10
1.28791e-09
8.44805e-10
7.83845e-07
1.12007e-09
1.12007e-09
8.26364e-07
6.47775e-10
1.31533e-09
8.52987e-07
2.15709e-16
1.41428e-09
8.6594e-07
-6.47775e-10
1.41428e-09
8.6594e-07
-1.12007e-09
1.31533e-09
8.52987e-07
-1.28791e-09
1.12007e-09
8.26364e-07
-1.11463e-09
8.44805e-10
7.83845e-07
5.28474e-10
7.20123e-07
-6.98783e-10
1.33214e-09
3.11006e-10
7.55271e-07
-8.4166e-10
1.52408e-09
4.92118e-10
8.14086e-07
1.31533e-09
6.47775e-10
8.52987e-07
7.56878e-10
7.56878e-10
8.77488e-07
3.22922e-16
8.1181e-10
8.89495e-07
-7.56877e-10
8.1181e-10
8.89495e-07
-1.31533e-09
7.56878e-10
8.77488e-07
-1.52408e-09
6.47775e-10
8.52987e-07