/*--------------------------------*- C++ -*----------------------------------*\
| =========                 |                                                 |
| \\      /  F ield         | OpenFOAM: The Open Source CFD Toolbox           |
|  \\    /   O peration     | Version:  2412                                  |
|   \\  /    A nd           | Website:  www.openfoam.com                      |
|    \\/     M anipulation  |                                                 |
\*---------------------------------------------------------------------------*/
FoamFile
{
    version     2.0;
    format      ascii;
    arch        "LSB;label=32;scalar=64";
    class       volVectorField;
    location    "6.7";
    object      U;
}
// * * * * * * * * * * * * * * * * * * * * * * * * * * * * * * * * * * * * * //

dimensions      [0 1 -1 0 0 0 0];

internalField   nonuniform List<vector> 
15000
(
(0.00122012 0.00122012 0.0104106)
(0.0009035 0.00114488 0.0103696)
(0.000616939 0.00111981 0.0103334)
(0.000362579 0.00109434 0.0103088)
(0.000119149 0.00108252 0.0102971)
(-0.000119149 0.00108252 0.0102971)
(-0.000362579 0.00109434 0.0103088)
(-0.000616939 0.00111981 0.0103334)
(-0.0009035 0.00114488 0.0103696)
(-0.00122012 0.00122012 0.0104106)
(0.00114488 0.0009035 0.0103696)
(0.000853871 0.000853871 0.010313)
(0.000585069 0.000817351 0.0102736)
(0.000341341 0.00079093 0.0102505)
(0.000111997 0.000777964 0.0102401)
(-0.000111997 0.000777964 0.0102401)
(-0.000341341 0.00079093 0.0102505)
(-0.000585069 0.000817351 0.0102736)
(-0.000853871 0.000853871 0.010313)
(-0.00114488 0.0009035 0.0103696)
(0.00111981 0.000616939 0.0103334)
(0.000817351 0.000585069 0.0102736)
(0.000555332 0.000555332 0.0102374)
(0.00032189 0.000533403 0.0102171)
(0.000105338 0.000522269 0.0102079)
(-0.000105338 0.000522269 0.0102079)
(-0.00032189 0.000533403 0.0102171)
(-0.000555332 0.000555332 0.0102374)
(-0.000817351 0.000585069 0.0102736)
(-0.00111981 0.000616939 0.0103334)
(0.00109434 0.000362579 0.0103088)
(0.00079093 0.000341341 0.0102505)
(0.000533403 0.00032189 0.0102171)
(0.000307549 0.000307549 0.0101982)
(0.000100407 0.000300199 0.0101894)
(-0.000100407 0.000300199 0.0101894)
(-0.000307549 0.000307549 0.0101982)
(-0.000533403 0.00032189 0.0102171)
(-0.00079093 0.000341341 0.0102505)
(-0.00109434 0.000362579 0.0103088)
(0.00108252 0.000119149 0.0102971)
(0.000777964 0.000111997 0.0102401)
(0.000522269 0.000105338 0.0102079)
(0.000300199 0.000100407 0.0101894)
(9.78716e-05 9.78716e-05 0.0101806)
(-9.78716e-05 9.78716e-05 0.0101806)
(-0.000300199 0.000100407 0.0101894)
(-0.000522269 0.000105338 0.0102079)
(-0.000777964 0.000111997 0.0102401)
(-0.00108252 0.000119149 0.0102971)
(0.00108252 -0.000119149 0.0102971)
(0.000777964 -0.000111997 0.0102401)
(0.000522269 -0.000105338 0.0102079)
(0.000300199 -0.000100407 0.0101894)
(9.78716e-05 -9.78716e-05 0.0101806)
(-9.78716e-05 -9.78716e-05 0.0101806)
(-0.000300199 -0.000100407 0.0101894)
(-0.000522269 -0.000105338 0.0102079)
(-0.000777964 -0.000111997 0.0102401)
(-0.00108252 -0.000119149 0.0102971)
(0.00109434 -0.000362579 0.0103088)
(0.00079093 -0.000341341 0.0102505)
(0.000533403 -0.00032189 0.0102171)
(0.000307549 -0.000307549 0.0101982)
(0.000100407 -0.000300199 0.0101894)
(-0.000100407 -0.000300199 0.0101894)
(-0.000307549 -0.000307549 0.0101982)
(-0.000533403 -0.00032189 0.0102171)
(-0.00079093 -0.000341341 0.0102505)
(-0.00109434 -0.000362579 0.0103088)
(0.00111981 -0.000616939 0.0103334)
(0.000817351 -0.000585069 0.0102736)
(0.000555332 -0.000555332 0.0102374)
(0.00032189 -0.000533403 0.0102171)
(0.000105338 -0.000522269 0.0102079)
(-0.000105338 -0.000522269 0.0102079)
(-0.00032189 -0.000533403 0.0102171)
(-0.000555332 -0.000555332 0.0102374)
(-0.000817351 -0.000585069 0.0102736)
(-0.00111981 -0.000616939 0.0103334)
(0.00114488 -0.0009035 0.0103696)
(0.000853871 -0.000853871 0.010313)
(0.000585069 -0.000817351 0.0102736)
(0.000341341 -0.00079093 0.0102505)
(0.000111997 -0.000777964 0.0102401)
(-0.000111997 -0.000777964 0.0102401)
(-0.000341341 -0.00079093 0.0102505)
(-0.000585069 -0.000817351 0.0102736)
(-0.000853871 -0.000853871 0.010313)
(-0.00114488 -0.0009035 0.0103696)
(0.00122012 -0.00122012 0.0104106)
(0.0009035 -0.00114488 0.0103696)
(0.000616939 -0.00111981 0.0103334)
(0.000362579 -0.00109434 0.0103088)
(0.000119149 -0.00108252 0.0102971)
(-0.000119149 -0.00108252 0.0102971)
(-0.000362579 -0.00109434 0.0103088)
(-0.000616939 -0.00111981 0.0103334)
(-0.0009035 -0.00114488 0.0103696)
(-0.00122012 -0.00122012 0.0104106)
(0.000789129 0.000789129 0.0126554)
(0.000625122 0.000835047 0.012637)
(0.00044556 0.000862489 0.0125532)
(0.000266665 0.000873616 0.012469)
(8.83201e-05 0.000878725 0.0124205)
(-8.83201e-05 0.000878725 0.0124205)
(-0.000266665 0.000873616 0.012469)
(-0.00044556 0.000862489 0.0125532)
(-0.000625122 0.000835047 0.012637)
(-0.000789129 0.000789129 0.0126554)
(0.000835047 0.000625122 0.012637)
(0.000649209 0.000649209 0.0124886)
(0.000456023 0.000656984 0.012312)
(0.000269442 0.000656774 0.0121753)
(8.8905e-05 0.000656005 0.0121035)
(-8.8905e-05 0.000656005 0.0121035)
(-0.000269442 0.000656774 0.0121753)
(-0.000456023 0.000656984 0.012312)
(-0.000649209 0.000649209 0.0124886)
(-0.000835047 0.000625122 0.012637)
(0.000862489 0.00044556 0.0125532)
(0.000656984 0.000456023 0.012312)
(0.00045587 0.00045587 0.0120838)
(0.000267214 0.000452444 0.0119219)
(8.79267e-05 0.000450232 0.01184)
(-8.79267e-05 0.000450232 0.01184)
(-0.000267214 0.000452444 0.0119219)
(-0.00045587 0.00045587 0.0120838)
(-0.000656984 0.000456023 0.012312)
(-0.000862489 0.00044556 0.0125532)
(0.000873616 0.000266665 0.012469)
(0.000656774 0.000269442 0.0121753)
(0.000452444 0.000267214 0.0119219)
(0.00026415 0.00026415 0.0117494)
(8.67958e-05 0.000262372 0.0116638)
(-8.67958e-05 0.000262372 0.0116638)
(-0.00026415 0.00026415 0.0117494)
(-0.000452444 0.000267214 0.0119219)
(-0.000656774 0.000269442 0.0121753)
(-0.000873616 0.000266665 0.012469)
(0.000878725 8.83201e-05 0.0124205)
(0.000656005 8.8905e-05 0.0121035)
(0.000450232 8.79267e-05 0.01184)
(0.000262372 8.67958e-05 0.0116638)
(8.61563e-05 8.61563e-05 0.0115771)
(-8.61563e-05 8.61563e-05 0.0115771)
(-0.000262372 8.67958e-05 0.0116638)
(-0.000450232 8.79267e-05 0.01184)
(-0.000656005 8.8905e-05 0.0121035)
(-0.000878725 8.83201e-05 0.0124205)
(0.000878725 -8.83201e-05 0.0124205)
(0.000656005 -8.8905e-05 0.0121035)
(0.000450232 -8.79267e-05 0.01184)
(0.000262372 -8.67958e-05 0.0116638)
(8.61563e-05 -8.61563e-05 0.0115771)
(-8.61563e-05 -8.61563e-05 0.0115771)
(-0.000262372 -8.67958e-05 0.0116638)
(-0.000450232 -8.79267e-05 0.01184)
(-0.000656005 -8.8905e-05 0.0121035)
(-0.000878725 -8.83201e-05 0.0124205)
(0.000873616 -0.000266665 0.012469)
(0.000656774 -0.000269442 0.0121753)
(0.000452444 -0.000267214 0.0119219)
(0.00026415 -0.00026415 0.0117494)
(8.67958e-05 -0.000262372 0.0116638)
(-8.67958e-05 -0.000262372 0.0116638)
(-0.00026415 -0.00026415 0.0117494)
(-0.000452444 -0.000267214 0.0119219)
(-0.000656774 -0.000269442 0.0121753)
(-0.000873616 -0.000266665 0.012469)
(0.000862489 -0.00044556 0.0125532)
(0.000656984 -0.000456023 0.012312)
(0.00045587 -0.00045587 0.0120838)
(0.000267214 -0.000452444 0.0119219)
(8.79267e-05 -0.000450232 0.01184)
(-8.79267e-05 -0.000450232 0.01184)
(-0.000267214 -0.000452444 0.0119219)
(-0.00045587 -0.00045587 0.0120838)
(-0.000656984 -0.000456023 0.012312)
(-0.000862489 -0.00044556 0.0125532)
(0.000835047 -0.000625122 0.012637)
(0.000649209 -0.000649209 0.0124886)
(0.000456023 -0.000656984 0.012312)
(0.000269442 -0.000656774 0.0121753)
(8.8905e-05 -0.000656005 0.0121035)
(-8.8905e-05 -0.000656005 0.0121035)
(-0.000269442 -0.000656774 0.0121753)
(-0.000456023 -0.000656984 0.012312)
(-0.000649209 -0.000649209 0.0124886)
(-0.000835047 -0.000625122 0.012637)
(0.000789129 -0.000789129 0.0126554)
(0.000625122 -0.000835047 0.012637)
(0.00044556 -0.000862489 0.0125532)
(0.000266665 -0.000873616 0.012469)
(8.83201e-05 -0.000878725 0.0124205)
(-8.83201e-05 -0.000878725 0.0124205)
(-0.000266665 -0.000873616 0.012469)
(-0.00044556 -0.000862489 0.0125532)
(-0.000625122 -0.000835047 0.012637)
(-0.000789129 -0.000789129 0.0126554)
(0.000560861 0.000560861 0.0125217)
(0.000469654 0.000631882 0.0127922)
(0.000353698 0.000680184 0.0128847)
(0.0002188 0.000708734 0.0128963)
(7.37259e-05 0.000722478 0.0128889)
(-7.37259e-05 0.000722478 0.0128889)
(-0.0002188 0.000708734 0.0128963)
(-0.000353698 0.000680184 0.0128847)
(-0.000469654 0.000631882 0.0127922)
(-0.000560861 0.000560861 0.0125217)
(0.000631882 0.000469654 0.0127922)
(0.000526897 0.000526897 0.0128973)
(0.000391166 0.000561834 0.0128503)
(0.000239862 0.000580788 0.0127746)
(8.06304e-05 0.000589441 0.0127265)
(-8.06304e-05 0.000589441 0.0127265)
(-0.000239862 0.000580788 0.0127746)
(-0.000391166 0.000561834 0.0128503)
(-0.000526897 0.000526897 0.0128973)
(-0.000631882 0.000469654 0.0127922)
(0.000680184 0.000353698 0.0128847)
(0.000561834 0.000391166 0.0128503)
(0.000413675 0.000413675 0.0127116)
(0.000252253 0.000425608 0.0125862)
(8.46469e-05 0.000430911 0.0125174)
(-8.46469e-05 0.000430911 0.0125174)
(-0.000252253 0.000425608 0.0125862)
(-0.000413675 0.000413675 0.0127116)
(-0.000561834 0.000391166 0.0128503)
(-0.000680184 0.000353698 0.0128847)
(0.000708734 0.0002188 0.0128963)
(0.000580788 0.000239862 0.0127746)
(0.000425608 0.000252253 0.0125862)
(0.000258829 0.000258829 0.0124378)
(8.67772e-05 0.000261723 0.0123605)
(-8.67772e-05 0.000261723 0.0123605)
(-0.000258829 0.000258829 0.0124378)
(-0.000425608 0.000252253 0.0125862)
(-0.000580788 0.000239862 0.0127746)
(-0.000708734 0.0002188 0.0128963)
(0.000722478 7.37259e-05 0.0128889)
(0.000589441 8.06304e-05 0.0127265)
(0.000430911 8.46469e-05 0.0125174)
(0.000261723 8.67772e-05 0.0123605)
(8.77098e-05 8.77098e-05 0.0122805)
(-8.77098e-05 8.77098e-05 0.0122805)
(-0.000261723 8.67772e-05 0.0123605)
(-0.000430911 8.46469e-05 0.0125174)
(-0.000589441 8.06304e-05 0.0127265)
(-0.000722478 7.37259e-05 0.0128889)
(0.000722478 -7.37259e-05 0.0128889)
(0.000589441 -8.06304e-05 0.0127265)
(0.000430911 -8.46469e-05 0.0125174)
(0.000261723 -8.67772e-05 0.0123605)
(8.77098e-05 -8.77098e-05 0.0122805)
(-8.77098e-05 -8.77098e-05 0.0122805)
(-0.000261723 -8.67772e-05 0.0123605)
(-0.000430911 -8.46469e-05 0.0125174)
(-0.000589441 -8.06304e-05 0.0127265)
(-0.000722478 -7.37259e-05 0.0128889)
(0.000708734 -0.0002188 0.0128963)
(0.000580788 -0.000239862 0.0127746)
(0.000425608 -0.000252253 0.0125862)
(0.000258829 -0.000258829 0.0124378)
(8.67772e-05 -0.000261723 0.0123605)
(-8.67772e-05 -0.000261723 0.0123605)
(-0.000258829 -0.000258829 0.0124378)
(-0.000425608 -0.000252253 0.0125862)
(-0.000580788 -0.000239862 0.0127746)
(-0.000708734 -0.0002188 0.0128963)
(0.000680184 -0.000353698 0.0128847)
(0.000561834 -0.000391166 0.0128503)
(0.000413675 -0.000413675 0.0127116)
(0.000252253 -0.000425608 0.0125862)
(8.46469e-05 -0.000430911 0.0125174)
(-8.46469e-05 -0.000430911 0.0125174)
(-0.000252253 -0.000425608 0.0125862)
(-0.000413675 -0.000413675 0.0127116)
(-0.000561834 -0.000391166 0.0128503)
(-0.000680184 -0.000353698 0.0128847)
(0.000631882 -0.000469654 0.0127922)
(0.000526897 -0.000526897 0.0128973)
(0.000391166 -0.000561834 0.0128503)
(0.000239862 -0.000580788 0.0127746)
(8.06304e-05 -0.000589441 0.0127265)
(-8.06304e-05 -0.000589441 0.0127265)
(-0.000239862 -0.000580788 0.0127746)
(-0.000391166 -0.000561834 0.0128503)
(-0.000526897 -0.000526897 0.0128973)
(-0.000631882 -0.000469654 0.0127922)
(0.000560861 -0.000560861 0.0125217)
(0.000469654 -0.000631882 0.0127922)
(0.000353698 -0.000680184 0.0128847)
(0.0002188 -0.000708734 0.0128963)
(7.37259e-05 -0.000722478 0.0128889)
(-7.37259e-05 -0.000722478 0.0128889)
(-0.0002188 -0.000708734 0.0128963)
(-0.000353698 -0.000680184 0.0128847)
(-0.000469654 -0.000631882 0.0127922)
(-0.000560861 -0.000560861 0.0125217)
(0.000248244 0.000248244 0.0127332)
(0.0002186 0.00030374 0.0131362)
(0.000173788 0.00034405 0.0133241)
(0.000110795 0.000371221 0.0133947)
(3.79307e-05 0.000384655 0.0134149)
(-3.79307e-05 0.000384655 0.0134149)
(-0.000110795 0.000371221 0.0133947)
(-0.000173788 0.00034405 0.0133241)
(-0.0002186 0.00030374 0.0131362)
(-0.000248244 0.000248244 0.0127332)
(0.00030374 0.0002186 0.0131362)
(0.0002696 0.0002696 0.0133886)
(0.000210884 0.000306134 0.0134346)
(0.000133735 0.000329418 0.0134121)
(4.57134e-05 0.000340806 0.0133879)
(-4.57134e-05 0.000340806 0.0133879)
(-0.000133735 0.000329418 0.0134121)
(-0.000210884 0.000306134 0.0134346)
(-0.0002696 0.0002696 0.0133886)
(-0.00030374 0.0002186 0.0131362)
(0.00034405 0.000173788 0.0133241)
(0.000306134 0.000210884 0.0134346)
(0.00023832 0.00023832 0.0133803)
(0.000150646 0.00025578 0.0133008)
(5.14464e-05 0.000264284 0.0132522)
(-5.14464e-05 0.000264284 0.0132522)
(-0.000150646 0.00025578 0.0133008)
(-0.00023832 0.00023832 0.0133803)
(-0.000306134 0.000210884 0.0134346)
(-0.00034405 0.000173789 0.0133241)
(0.000371221 0.000110795 0.0133947)
(0.000329418 0.000133735 0.0134121)
(0.00025578 0.000150646 0.0133008)
(0.000161425 0.000161425 0.0131933)
(5.50998e-05 0.000166658 0.0131337)
(-5.50998e-05 0.000166658 0.0131337)
(-0.000161425 0.000161425 0.0131933)
(-0.00025578 0.000150646 0.0133008)
(-0.000329418 0.000133735 0.0134121)
(-0.000371221 0.000110795 0.0133947)
(0.000384655 3.79307e-05 0.0134149)
(0.000340806 4.57134e-05 0.0133879)
(0.000264284 5.14464e-05 0.0132522)
(0.000166658 5.50998e-05 0.0131337)
(5.68683e-05 5.68683e-05 0.0130703)
(-5.68682e-05 5.68683e-05 0.0130703)
(-0.000166658 5.50998e-05 0.0131337)
(-0.000264284 5.14464e-05 0.0132522)
(-0.000340806 4.57134e-05 0.0133879)
(-0.000384655 3.79306e-05 0.0134149)
(0.000384655 -3.79307e-05 0.0134149)
(0.000340806 -4.57134e-05 0.0133879)
(0.000264284 -5.14464e-05 0.0132522)
(0.000166658 -5.50998e-05 0.0131337)
(5.68683e-05 -5.68682e-05 0.0130703)
(-5.68682e-05 -5.68682e-05 0.0130703)
(-0.000166658 -5.50998e-05 0.0131337)
(-0.000264284 -5.14464e-05 0.0132522)
(-0.000340806 -4.57134e-05 0.0133879)
(-0.000384655 -3.79307e-05 0.0134149)
(0.000371221 -0.000110795 0.0133947)
(0.000329418 -0.000133735 0.0134121)
(0.00025578 -0.000150646 0.0133008)
(0.000161425 -0.000161425 0.0131933)
(5.50998e-05 -0.000166658 0.0131337)
(-5.50998e-05 -0.000166658 0.0131337)
(-0.000161425 -0.000161425 0.0131933)
(-0.00025578 -0.000150646 0.0133008)
(-0.000329418 -0.000133735 0.0134121)
(-0.000371221 -0.000110795 0.0133947)
(0.00034405 -0.000173788 0.0133241)
(0.000306134 -0.000210884 0.0134346)
(0.00023832 -0.00023832 0.0133803)
(0.000150646 -0.00025578 0.0133008)
(5.14464e-05 -0.000264284 0.0132522)
(-5.14464e-05 -0.000264284 0.0132522)
(-0.000150646 -0.00025578 0.0133008)
(-0.00023832 -0.00023832 0.0133803)
(-0.000306134 -0.000210884 0.0134346)
(-0.00034405 -0.000173788 0.0133241)
(0.00030374 -0.0002186 0.0131362)
(0.0002696 -0.0002696 0.0133886)
(0.000210884 -0.000306134 0.0134346)
(0.000133735 -0.000329418 0.0134121)
(4.57134e-05 -0.000340806 0.0133879)
(-4.57134e-05 -0.000340806 0.0133879)
(-0.000133735 -0.000329418 0.0134121)
(-0.000210884 -0.000306134 0.0134346)
(-0.0002696 -0.0002696 0.0133886)
(-0.00030374 -0.0002186 0.0131362)
(0.000248244 -0.000248244 0.0127332)
(0.0002186 -0.00030374 0.0131362)
(0.000173789 -0.00034405 0.0133241)
(0.000110795 -0.000371221 0.0133947)
(3.79306e-05 -0.000384655 0.0134149)
(-3.79307e-05 -0.000384655 0.0134149)
(-0.000110795 -0.000371221 0.0133947)
(-0.000173788 -0.00034405 0.0133241)
(-0.0002186 -0.00030374 0.0131362)
(-0.000248245 -0.000248245 0.0127332)
(0.000111211 0.000111211 0.0126529)
(0.000100764 0.000140129 0.0131328)
(8.3231e-05 0.000163055 0.0133845)
(5.42043e-05 0.000179426 0.0134994)
(1.87656e-05 0.000187688 0.013542)
(-1.87655e-05 0.000187688 0.013542)
(-5.42043e-05 0.000179426 0.0134994)
(-8.3231e-05 0.000163055 0.0133845)
(-0.000100764 0.000140129 0.0131328)
(-0.000111211 0.000111211 0.0126529)
(0.000140129 0.000100764 0.0131328)
(0.000130725 0.000130725 0.0134869)
(0.00010646 0.000153889 0.0136105)
(6.91851e-05 0.00016957 0.0136398)
(2.39312e-05 0.000177448 0.0136414)
(-2.39312e-05 0.000177448 0.0136414)
(-6.91851e-05 0.00016957 0.0136398)
(-0.00010646 0.000153889 0.0136105)
(-0.000130725 0.000130725 0.0134869)
(-0.000140129 0.000100764 0.0131328)
(0.000163055 8.3231e-05 0.0133845)
(0.000153889 0.00010646 0.0136105)
(0.000124992 0.000124992 0.0136412)
(8.10716e-05 0.000137452 0.0136171)
(2.80251e-05 0.000143679 0.0135956)
(-2.80251e-05 0.000143679 0.0135956)
(-8.10716e-05 0.000137452 0.0136171)
(-0.000124992 0.000124992 0.0136412)
(-0.000153889 0.00010646 0.0136105)
(-0.000163055 8.32311e-05 0.0133845)
(0.000179426 5.42043e-05 0.0134994)
(0.00016957 6.91851e-05 0.0136398)
(0.000137452 8.10716e-05 0.0136171)
(8.90164e-05 8.90164e-05 0.0135663)
(3.07526e-05 9.29626e-05 0.0135342)
(-3.07526e-05 9.29626e-05 0.0135342)
(-8.90164e-05 8.90164e-05 0.0135663)
(-0.000137452 8.10716e-05 0.0136171)
(-0.00016957 6.91851e-05 0.0136398)
(-0.000179426 5.42043e-05 0.0134994)
(0.000187688 1.87656e-05 0.013542)
(0.000177448 2.39312e-05 0.0136414)
(0.000143679 2.80251e-05 0.0135956)
(9.29626e-05 3.07526e-05 0.0135342)
(3.21021e-05 3.21021e-05 0.0134984)
(-3.21021e-05 3.21021e-05 0.0134984)
(-9.29626e-05 3.07526e-05 0.0135342)
(-0.000143679 2.80251e-05 0.0135956)
(-0.000177448 2.39312e-05 0.0136414)
(-0.000187688 1.87655e-05 0.013542)
(0.000187688 -1.87655e-05 0.013542)
(0.000177448 -2.39312e-05 0.0136414)
(0.000143679 -2.80251e-05 0.0135956)
(9.29626e-05 -3.07526e-05 0.0135342)
(3.21021e-05 -3.21021e-05 0.0134984)
(-3.21021e-05 -3.21021e-05 0.0134984)
(-9.29626e-05 -3.07526e-05 0.0135342)
(-0.000143679 -2.80251e-05 0.0135956)
(-0.000177448 -2.39312e-05 0.0136414)
(-0.000187688 -1.87656e-05 0.013542)
(0.000179426 -5.42043e-05 0.0134994)
(0.00016957 -6.91851e-05 0.0136398)
(0.000137452 -8.10716e-05 0.0136171)
(8.90164e-05 -8.90164e-05 0.0135663)
(3.07526e-05 -9.29626e-05 0.0135342)
(-3.07526e-05 -9.29626e-05 0.0135342)
(-8.90164e-05 -8.90164e-05 0.0135663)
(-0.000137452 -8.10716e-05 0.0136171)
(-0.00016957 -6.91851e-05 0.0136398)
(-0.000179426 -5.42043e-05 0.0134994)
(0.000163055 -8.3231e-05 0.0133845)
(0.000153889 -0.00010646 0.0136105)
(0.000124992 -0.000124992 0.0136412)
(8.10716e-05 -0.000137452 0.0136171)
(2.80251e-05 -0.000143679 0.0135956)
(-2.80251e-05 -0.000143679 0.0135956)
(-8.10716e-05 -0.000137452 0.0136171)
(-0.000124992 -0.000124992 0.0136412)
(-0.000153889 -0.00010646 0.0136105)
(-0.000163055 -8.3231e-05 0.0133845)
(0.000140129 -0.000100764 0.0131328)
(0.000130725 -0.000130725 0.0134869)
(0.00010646 -0.000153889 0.0136105)
(6.91851e-05 -0.00016957 0.0136398)
(2.39312e-05 -0.000177448 0.0136414)
(-2.39312e-05 -0.000177448 0.0136414)
(-6.91851e-05 -0.00016957 0.0136398)
(-0.00010646 -0.000153889 0.0136105)
(-0.000130725 -0.000130725 0.0134869)
(-0.000140129 -0.000100764 0.0131328)
(0.000111211 -0.000111211 0.0126529)
(0.000100764 -0.000140129 0.0131328)
(8.32311e-05 -0.000163055 0.0133845)
(5.42043e-05 -0.000179426 0.0134994)
(1.87655e-05 -0.000187688 0.013542)
(-1.87655e-05 -0.000187688 0.013542)
(-5.42043e-05 -0.000179426 0.0134994)
(-8.3231e-05 -0.000163055 0.0133845)
(-0.000100764 -0.000140129 0.0131328)
(-0.000111211 -0.000111211 0.0126529)
(3.95567e-05 3.95567e-05 0.0125958)
(3.80947e-05 5.35718e-05 0.0130982)
(3.34327e-05 6.53806e-05 0.0133736)
(2.24849e-05 7.42588e-05 0.0135073)
(7.91438e-06 7.88255e-05 0.0135602)
(-7.91438e-06 7.88255e-05 0.0135602)
(-2.24849e-05 7.42588e-05 0.0135073)
(-3.34327e-05 6.53806e-05 0.0133736)
(-3.80947e-05 5.35718e-05 0.0130982)
(-3.95567e-05 3.95567e-05 0.0125958)
(5.35718e-05 3.80947e-05 0.0130982)
(5.38835e-05 5.38835e-05 0.0134932)
(4.64108e-05 6.69433e-05 0.013654)
(3.11625e-05 7.6247e-05 0.013711)
(1.0948e-05 8.10307e-05 0.0137272)
(-1.0948e-05 8.10307e-05 0.0137272)
(-3.11625e-05 7.6247e-05 0.013711)
(-4.64108e-05 6.69433e-05 0.013654)
(-5.38835e-05 5.38835e-05 0.0134932)
(-5.35718e-05 3.80947e-05 0.0130982)
(6.53806e-05 3.34327e-05 0.0133736)
(6.69434e-05 4.64108e-05 0.013654)
(5.74374e-05 5.74374e-05 0.013732)
(3.84631e-05 6.51838e-05 0.0137416)
(1.34943e-05 6.91399e-05 0.0137374)
(-1.34943e-05 6.91399e-05 0.0137374)
(-3.84631e-05 6.51838e-05 0.0137416)
(-5.74374e-05 5.74374e-05 0.013732)
(-6.69433e-05 4.64108e-05 0.013654)
(-6.53806e-05 3.34327e-05 0.0133736)
(7.42588e-05 2.24849e-05 0.0135073)
(7.6247e-05 3.11625e-05 0.013711)
(6.51838e-05 3.84631e-05 0.0137416)
(4.35354e-05 4.35354e-05 0.0137277)
(1.52548e-05 4.61059e-05 0.0137144)
(-1.52548e-05 4.61059e-05 0.0137144)
(-4.35354e-05 4.35354e-05 0.0137277)
(-6.51838e-05 3.84631e-05 0.0137416)
(-7.6247e-05 3.11625e-05 0.013711)
(-7.42588e-05 2.24849e-05 0.0135073)
(7.88255e-05 7.91438e-06 0.0135602)
(8.10307e-05 1.0948e-05 0.0137272)
(6.91399e-05 1.34943e-05 0.0137374)
(4.61059e-05 1.52548e-05 0.0137144)
(1.61433e-05 1.61433e-05 0.0136978)
(-1.61433e-05 1.61433e-05 0.0136978)
(-4.61059e-05 1.52548e-05 0.0137144)
(-6.91399e-05 1.34943e-05 0.0137374)
(-8.10307e-05 1.0948e-05 0.0137272)
(-7.88255e-05 7.91438e-06 0.0135602)
(7.88255e-05 -7.91438e-06 0.0135602)
(8.10307e-05 -1.0948e-05 0.0137272)
(6.91399e-05 -1.34943e-05 0.0137374)
(4.61059e-05 -1.52548e-05 0.0137144)
(1.61433e-05 -1.61433e-05 0.0136978)
(-1.61433e-05 -1.61433e-05 0.0136978)
(-4.61059e-05 -1.52548e-05 0.0137144)
(-6.91399e-05 -1.34943e-05 0.0137374)
(-8.10307e-05 -1.0948e-05 0.0137272)
(-7.88255e-05 -7.91438e-06 0.0135602)
(7.42588e-05 -2.24849e-05 0.0135073)
(7.6247e-05 -3.11625e-05 0.013711)
(6.51838e-05 -3.84631e-05 0.0137416)
(4.35354e-05 -4.35354e-05 0.0137277)
(1.52548e-05 -4.61059e-05 0.0137144)
(-1.52548e-05 -4.61059e-05 0.0137144)
(-4.35354e-05 -4.35354e-05 0.0137277)
(-6.51838e-05 -3.84631e-05 0.0137416)
(-7.6247e-05 -3.11625e-05 0.013711)
(-7.42588e-05 -2.24849e-05 0.0135073)
(6.53806e-05 -3.34327e-05 0.0133736)
(6.69433e-05 -4.64108e-05 0.013654)
(5.74374e-05 -5.74374e-05 0.013732)
(3.84631e-05 -6.51838e-05 0.0137416)
(1.34943e-05 -6.91399e-05 0.0137374)
(-1.34943e-05 -6.91399e-05 0.0137374)
(-3.84631e-05 -6.51838e-05 0.0137416)
(-5.74374e-05 -5.74374e-05 0.013732)
(-6.69433e-05 -4.64107e-05 0.013654)
(-6.53806e-05 -3.34327e-05 0.0133736)
(5.35718e-05 -3.80947e-05 0.0130982)
(5.38835e-05 -5.38835e-05 0.0134932)
(4.64108e-05 -6.69433e-05 0.013654)
(3.11625e-05 -7.6247e-05 0.013711)
(1.0948e-05 -8.10307e-05 0.0137272)
(-1.0948e-05 -8.10307e-05 0.0137272)
(-3.11625e-05 -7.6247e-05 0.013711)
(-4.64107e-05 -6.69433e-05 0.013654)
(-5.38835e-05 -5.38835e-05 0.0134932)
(-5.35718e-05 -3.80947e-05 0.0130982)
(3.95567e-05 -3.95567e-05 0.0125958)
(3.80947e-05 -5.35718e-05 0.0130982)
(3.34327e-05 -6.53806e-05 0.0133736)
(2.24849e-05 -7.42588e-05 0.0135073)
(7.91438e-06 -7.88255e-05 0.0135602)
(-7.91438e-06 -7.88255e-05 0.0135602)
(-2.24849e-05 -7.42588e-05 0.0135073)
(-3.34327e-05 -6.53806e-05 0.0133736)
(-3.80947e-05 -5.35718e-05 0.0130982)
(-3.95567e-05 -3.95567e-05 0.0125958)
(1.12971e-05 1.12971e-05 0.0125687)
(1.17711e-05 1.68309e-05 0.0130773)
(1.11285e-05 2.1812e-05 0.0133611)
(7.7548e-06 2.57731e-05 0.0135025)
(2.78519e-06 2.7849e-05 0.0135597)
(-2.78519e-06 2.7849e-05 0.0135597)
(-7.7548e-06 2.57731e-05 0.0135025)
(-1.11285e-05 2.1812e-05 0.0133611)
(-1.17711e-05 1.68308e-05 0.0130773)
(-1.12971e-05 1.12971e-05 0.0125687)
(1.68309e-05 1.17711e-05 0.0130773)
(1.85878e-05 1.85878e-05 0.0134876)
(1.70877e-05 2.46386e-05 0.0136649)
(1.18874e-05 2.91816e-05 0.0137352)
(4.24874e-06 3.15711e-05 0.0137587)
(-4.24874e-06 3.15711e-05 0.0137587)
(-1.18874e-05 2.91816e-05 0.0137352)
(-1.70877e-05 2.46386e-05 0.0136649)
(-1.85878e-05 1.85878e-05 0.0134876)
(-1.68309e-05 1.17711e-05 0.0130773)
(2.1812e-05 1.11285e-05 0.0133611)
(2.46386e-05 1.70877e-05 0.0136649)
(2.24888e-05 2.24888e-05 0.013766)
(1.55826e-05 2.6461e-05 0.0137931)
(5.55384e-06 2.85339e-05 0.0137981)
(-5.55384e-06 2.85339e-05 0.0137981)
(-1.55826e-05 2.6461e-05 0.0137931)
(-2.24888e-05 2.24888e-05 0.013766)
(-2.46386e-05 1.70877e-05 0.0136649)
(-2.1812e-05 1.11285e-05 0.0133611)
(2.57731e-05 7.7548e-06 0.0135025)
(2.91816e-05 1.18874e-05 0.0137352)
(2.6461e-05 1.55826e-05 0.0137931)
(1.82601e-05 1.82601e-05 0.0137992)
(6.4942e-06 1.9646e-05 0.0137962)
(-6.4942e-06 1.9646e-05 0.0137962)
(-1.82601e-05 1.82601e-05 0.0137992)
(-2.6461e-05 1.55826e-05 0.0137931)
(-2.91816e-05 1.18874e-05 0.0137352)
(-2.57731e-05 7.7548e-06 0.0135025)
(2.7849e-05 2.78519e-06 0.0135597)
(3.15711e-05 4.24874e-06 0.0137587)
(2.85339e-05 5.55384e-06 0.0137981)
(1.9646e-05 6.49421e-06 0.0137962)
(6.97914e-06 6.97914e-06 0.0137904)
(-6.97913e-06 6.97914e-06 0.0137904)
(-1.9646e-05 6.4942e-06 0.0137962)
(-2.85339e-05 5.55384e-06 0.0137981)
(-3.15711e-05 4.24874e-06 0.0137587)
(-2.7849e-05 2.78519e-06 0.0135597)
(2.7849e-05 -2.78519e-06 0.0135597)
(3.15711e-05 -4.24874e-06 0.0137587)
(2.85339e-05 -5.55384e-06 0.0137981)
(1.9646e-05 -6.4942e-06 0.0137962)
(6.97914e-06 -6.97913e-06 0.0137904)
(-6.97914e-06 -6.97913e-06 0.0137904)
(-1.9646e-05 -6.4942e-06 0.0137962)
(-2.85339e-05 -5.55384e-06 0.0137981)
(-3.15711e-05 -4.24874e-06 0.0137587)
(-2.7849e-05 -2.78519e-06 0.0135597)
(2.57731e-05 -7.7548e-06 0.0135025)
(2.91816e-05 -1.18874e-05 0.0137352)
(2.6461e-05 -1.55826e-05 0.0137931)
(1.82601e-05 -1.82601e-05 0.0137992)
(6.4942e-06 -1.9646e-05 0.0137962)
(-6.4942e-06 -1.9646e-05 0.0137962)
(-1.82601e-05 -1.82601e-05 0.0137992)
(-2.6461e-05 -1.55826e-05 0.0137931)
(-2.91816e-05 -1.18874e-05 0.0137352)
(-2.57731e-05 -7.75479e-06 0.0135025)
(2.1812e-05 -1.11285e-05 0.0133611)
(2.46386e-05 -1.70877e-05 0.0136649)
(2.24888e-05 -2.24888e-05 0.013766)
(1.55826e-05 -2.6461e-05 0.0137931)
(5.55384e-06 -2.85339e-05 0.0137981)
(-5.55384e-06 -2.85339e-05 0.0137981)
(-1.55826e-05 -2.6461e-05 0.0137931)
(-2.24888e-05 -2.24888e-05 0.013766)
(-2.46386e-05 -1.70877e-05 0.0136649)
(-2.1812e-05 -1.11285e-05 0.0133611)
(1.68308e-05 -1.17711e-05 0.0130773)
(1.85878e-05 -1.85878e-05 0.0134876)
(1.70877e-05 -2.46386e-05 0.0136649)
(1.18874e-05 -2.91816e-05 0.0137352)
(4.24874e-06 -3.15711e-05 0.0137587)
(-4.24874e-06 -3.15711e-05 0.0137587)
(-1.18874e-05 -2.91816e-05 0.0137352)
(-1.70877e-05 -2.46386e-05 0.0136649)
(-1.85878e-05 -1.85878e-05 0.0134876)
(-1.68309e-05 -1.17711e-05 0.0130773)
(1.12971e-05 -1.12971e-05 0.0125687)
(1.17711e-05 -1.68309e-05 0.0130773)
(1.11285e-05 -2.1812e-05 0.0133611)
(7.7548e-06 -2.57731e-05 0.0135025)
(2.78519e-06 -2.7849e-05 0.0135597)
(-2.78519e-06 -2.7849e-05 0.0135597)
(-7.75479e-06 -2.57731e-05 0.0135025)
(-1.11285e-05 -2.1812e-05 0.0133611)
(-1.17711e-05 -1.68309e-05 0.0130773)
(-1.12971e-05 -1.12971e-05 0.0125687)
(2.61591e-06 2.61591e-06 0.0125567)
(3.08529e-06 4.49791e-06 0.013066)
(3.23861e-06 6.29225e-06 0.0133523)
(2.35775e-06 7.8014e-06 0.0134962)
(8.69187e-07 8.60344e-06 0.0135551)
(-8.69186e-07 8.60343e-06 0.0135551)
(-2.35775e-06 7.8014e-06 0.0134962)
(-3.23861e-06 6.29225e-06 0.0133523)
(-3.08529e-06 4.4979e-06 0.013066)
(-2.61591e-06 2.61592e-06 0.0125567)
(4.49791e-06 3.08529e-06 0.013066)
(5.62129e-06 5.62128e-06 0.0134811)
(5.57367e-06 8.00766e-06 0.0136647)
(4.02619e-06 9.88086e-06 0.0137405)
(1.46614e-06 1.08844e-05 0.0137671)
(-1.46614e-06 1.08844e-05 0.0137671)
(-4.02619e-06 9.88086e-06 0.0137405)
(-5.57367e-06 8.00766e-06 0.0136647)
(-5.62128e-06 5.62128e-06 0.0134811)
(-4.49791e-06 3.08529e-06 0.013066)
(6.29225e-06 3.23861e-06 0.0133523)
(8.00766e-06 5.57367e-06 0.0136647)
(7.80847e-06 7.80847e-06 0.0137755)
(5.59878e-06 9.51919e-06 0.0138106)
(2.02738e-06 1.04281e-05 0.01382)
(-2.02738e-06 1.04281e-05 0.01382)
(-5.59878e-06 9.51919e-06 0.0138106)
(-7.80846e-06 7.80847e-06 0.0137755)
(-8.00766e-06 5.57367e-06 0.0136647)
(-6.29225e-06 3.23861e-06 0.0133523)
(7.8014e-06 2.35775e-06 0.0134962)
(9.88086e-06 4.02619e-06 0.0137405)
(9.51919e-06 5.59878e-06 0.0138106)
(6.78258e-06 6.78258e-06 0.0138261)
(2.44748e-06 7.40654e-06 0.0138282)
(-2.44748e-06 7.40654e-06 0.0138282)
(-6.78257e-06 6.78258e-06 0.0138261)
(-9.51919e-06 5.59878e-06 0.0138106)
(-9.88085e-06 4.02619e-06 0.0137405)
(-7.8014e-06 2.35775e-06 0.0134962)
(8.60343e-06 8.69187e-07 0.0135551)
(1.08844e-05 1.46614e-06 0.0137671)
(1.04281e-05 2.02738e-06 0.01382)
(7.40654e-06 2.44748e-06 0.0138282)
(2.66821e-06 2.66821e-06 0.0138278)
(-2.66821e-06 2.66821e-06 0.0138278)
(-7.40654e-06 2.44748e-06 0.0138282)
(-1.04281e-05 2.02739e-06 0.01382)
(-1.08843e-05 1.46614e-06 0.0137671)
(-8.60343e-06 8.69185e-07 0.0135551)
(8.60343e-06 -8.69187e-07 0.0135551)
(1.08844e-05 -1.46614e-06 0.0137671)
(1.04281e-05 -2.02738e-06 0.01382)
(7.40654e-06 -2.44748e-06 0.0138282)
(2.66821e-06 -2.66821e-06 0.0138278)
(-2.66821e-06 -2.66821e-06 0.0138278)
(-7.40654e-06 -2.44748e-06 0.0138282)
(-1.04281e-05 -2.02738e-06 0.01382)
(-1.08843e-05 -1.46614e-06 0.0137671)
(-8.60343e-06 -8.69187e-07 0.0135551)
(7.8014e-06 -2.35775e-06 0.0134962)
(9.88086e-06 -4.02619e-06 0.0137405)
(9.51919e-06 -5.59878e-06 0.0138106)
(6.78258e-06 -6.78257e-06 0.0138261)
(2.44748e-06 -7.40653e-06 0.0138282)
(-2.44748e-06 -7.40654e-06 0.0138282)
(-6.78257e-06 -6.78257e-06 0.0138261)
(-9.51919e-06 -5.59877e-06 0.0138106)
(-9.88085e-06 -4.02618e-06 0.0137405)
(-7.8014e-06 -2.35775e-06 0.0134962)
(6.29225e-06 -3.23861e-06 0.0133523)
(8.00766e-06 -5.57367e-06 0.0136647)
(7.80847e-06 -7.80846e-06 0.0137755)
(5.59878e-06 -9.51919e-06 0.0138106)
(2.02739e-06 -1.04281e-05 0.01382)
(-2.02738e-06 -1.04281e-05 0.01382)
(-5.59878e-06 -9.51919e-06 0.0138106)
(-7.80846e-06 -7.80846e-06 0.0137755)
(-8.00765e-06 -5.57367e-06 0.0136647)
(-6.29225e-06 -3.23861e-06 0.0133523)
(4.49791e-06 -3.08529e-06 0.013066)
(5.62129e-06 -5.62128e-06 0.0134811)
(5.57367e-06 -8.00765e-06 0.0136647)
(4.02619e-06 -9.88085e-06 0.0137405)
(1.46614e-06 -1.08843e-05 0.0137671)
(-1.46614e-06 -1.08843e-05 0.0137671)
(-4.02618e-06 -9.88085e-06 0.0137405)
(-5.57367e-06 -8.00765e-06 0.0136647)
(-5.62128e-06 -5.62128e-06 0.0134811)
(-4.49791e-06 -3.08529e-06 0.013066)
(2.61592e-06 -2.61592e-06 0.0125567)
(3.08529e-06 -4.49791e-06 0.013066)
(3.23861e-06 -6.29225e-06 0.0133523)
(2.35775e-06 -7.8014e-06 0.0134962)
(8.69186e-07 -8.60343e-06 0.0135551)
(-8.69187e-07 -8.60343e-06 0.0135551)