/*--------------------------------*- C++ -*----------------------------------*\
| =========                 |                                                 |
| \\      /  F ield         | OpenFOAM: The Open Source CFD Toolbox           |
|  \\    /   O peration     | Version:  2412                                  |
|   \\  /    A nd           | Website:  www.openfoam.com                      |
|    \\/     M anipulation  |                                                 |
\*---------------------------------------------------------------------------*/
FoamFile
{
    version     2.0;
    format      ascii;
    arch        "LSB;label=32;scalar=64";
    class       surfaceScalarField;
    location    "1.4";
    object      phi;
}
// * * * * * * * * * * * * * * * * * * * * * * * * * * * * * * * * * * * * * //

dimensions      [0 3 -1 0 0 0 0];

oriented        oriented;

internalField   nonuniform List<scalar> 
43700
(
1.19423e-07
1.19423e-07
5.24585e-07
-1.46706e-07
-1.46706e-07
8.67867e-08
1.03459e-07
5.63793e-07
-1.25232e-07
5.73629e-08
9.51561e-08
5.9325e-07
-1.19552e-07
2.8428e-08
8.95084e-08
6.12903e-07
-1.13764e-07
-5.10567e-15
8.68844e-08
6.22762e-07
-1.1129e-07
-2.8428e-08
8.68844e-08
6.22762e-07
-1.1129e-07
-5.73629e-08
8.95084e-08
6.12903e-07
-1.13764e-07
-8.67867e-08
9.51561e-08
5.9325e-07
-1.19552e-07
-1.19423e-07
1.03459e-07
5.63793e-07
-1.25232e-07
1.19423e-07
5.24585e-07
-1.46706e-07
-1.46706e-07
1.03459e-07
8.67867e-08
5.63793e-07
-1.25232e-07
7.71922e-08
7.71922e-08
5.98377e-07
5.11861e-08
7.05116e-08
6.24341e-07
2.54467e-08
6.60276e-08
6.41717e-07
-4.97289e-16
6.38659e-08
6.50438e-07
-2.54467e-08
6.38659e-08
6.50438e-07
-5.11861e-08
6.60276e-08
6.41717e-07
-7.71922e-08
7.05116e-08
6.24341e-07
-1.03459e-07
7.71922e-08
5.98377e-07
8.67867e-08
5.63793e-07
-1.25232e-07
9.51561e-08
5.73629e-08
5.9325e-07
-1.19552e-07
7.05116e-08
5.11861e-08
6.24341e-07
4.65401e-08
4.65401e-08
6.47816e-07
2.31027e-08
4.34421e-08
6.63586e-07
2.41782e-15
4.19335e-08
6.71513e-07
-2.31027e-08
4.19335e-08
6.71513e-07
-4.654e-08
4.34421e-08
6.63586e-07
-7.05116e-08
4.65401e-08
6.47816e-07
-9.51561e-08
5.11861e-08
6.24341e-07
5.73629e-08
5.9325e-07
-1.19552e-07
8.95084e-08
2.8428e-08
6.12903e-07
-1.13764e-07
6.60276e-08
2.54467e-08
6.41717e-07
4.34421e-08
2.31027e-08
6.63586e-07
2.15316e-08
2.15316e-08
6.78324e-07
3.20001e-15
2.07625e-08
6.85745e-07
-2.15316e-08
2.07625e-08
6.85745e-07
-4.34421e-08
2.15316e-08
6.78324e-07
-6.60276e-08
2.31027e-08
6.63586e-07
-8.95084e-08
2.54467e-08
6.41717e-07
2.8428e-08
6.12903e-07
-1.13764e-07
8.68844e-08
-3.76439e-15
6.22762e-07
-1.1129e-07
6.38658e-08
-5.76313e-15
6.50438e-07
4.19335e-08
-2.08441e-16
6.71513e-07
2.07625e-08
5.52915e-15
6.85745e-07
3.69543e-15
4.21371e-15
6.92918e-07
-2.07625e-08
2.2179e-15
6.92918e-07
-4.19335e-08
1.03105e-15
6.85745e-07
-6.38658e-08
4.68706e-15
6.71513e-07
-8.68844e-08
7.99265e-15
6.50438e-07
1.59998e-15
6.22762e-07
-1.1129e-07
8.68844e-08
-2.8428e-08
6.22762e-07
-1.1129e-07
6.38658e-08
-2.54467e-08
6.50438e-07
4.19335e-08
-2.31027e-08
6.71513e-07
2.07625e-08
-2.15316e-08
6.85745e-07
1.35974e-15
-2.07625e-08
6.92918e-07
-2.07625e-08
-2.07625e-08
6.92918e-07
-4.19335e-08
-2.15316e-08
6.85745e-07
-6.38658e-08
-2.31026e-08
6.71513e-07
-8.68844e-08
-2.54467e-08
6.50438e-07
-2.8428e-08
6.22762e-07
-1.1129e-07
8.95084e-08
-5.73629e-08
6.12903e-07
-1.13764e-07
6.60276e-08
-5.11861e-08
6.41717e-07
4.34421e-08
-4.65401e-08
6.63586e-07
2.15316e-08
-4.34421e-08
6.78324e-07
1.21251e-17
-4.19335e-08
6.85745e-07
-2.15316e-08
-4.19335e-08
6.85745e-07
-4.34421e-08
-4.34421e-08
6.78324e-07
-6.60276e-08
-4.654e-08
6.63586e-07
-8.95084e-08
-5.11861e-08
6.41717e-07
-5.73629e-08
6.12903e-07
-1.13764e-07
9.51561e-08
-8.67867e-08
5.9325e-07
-1.19552e-07
7.05116e-08
-7.71923e-08
6.24341e-07
4.65401e-08
-7.05116e-08
6.47816e-07
2.31027e-08
-6.60276e-08
6.63586e-07
3.08578e-15
-6.38658e-08
6.71513e-07
-2.31027e-08
-6.38658e-08
6.71513e-07
-4.654e-08
-6.60276e-08
6.63586e-07
-7.05116e-08
-7.05116e-08
6.47816e-07
-9.51561e-08
-7.71922e-08
6.24341e-07
-8.67867e-08
5.9325e-07
-1.19552e-07
1.03459e-07
-1.19423e-07
5.63793e-07
-1.25232e-07
7.71922e-08
-1.03459e-07
5.98377e-07
5.11861e-08
-9.51561e-08
6.24341e-07
2.54467e-08
-8.95084e-08
6.41717e-07
6.70456e-15
-8.68844e-08
6.50438e-07
-2.54467e-08
-8.68844e-08
6.50438e-07
-5.11861e-08
-8.95084e-08
6.41717e-07
-7.71922e-08
-9.51561e-08
6.24341e-07
-1.03459e-07
-1.03459e-07
5.98377e-07
-1.19423e-07
5.63793e-07
-1.25232e-07
1.19423e-07
5.24585e-07
-1.46706e-07
-1.46706e-07
8.67867e-08
5.63793e-07
-1.25232e-07
5.73629e-08
5.9325e-07
-1.19552e-07
2.8428e-08
6.12903e-07
-1.13764e-07
4.48089e-15
6.22762e-07
-1.1129e-07
-2.8428e-08
6.22762e-07
-1.1129e-07
-5.73629e-08
6.12903e-07
-1.13764e-07
-8.67867e-08
5.9325e-07
-1.19552e-07
-1.19423e-07
5.63793e-07
-1.25232e-07
5.24585e-07
-1.46706e-07
-1.46706e-07
4.47753e-08
4.47753e-08
5.34953e-07
-4.99594e-08
-4.99594e-08
3.57228e-08
4.45746e-08
5.76868e-07
-4.85973e-08
2.51214e-08
4.51286e-08
6.08604e-07
-4.98814e-08
1.29056e-08
4.5209e-08
6.29906e-07
-4.9996e-08
-3.62734e-15
4.5281e-08
6.40625e-07
-5.02386e-08
-1.29056e-08
4.5281e-08
6.40625e-07
-5.02386e-08
-2.51214e-08
4.52089e-08
6.29906e-07
-4.9996e-08
-3.57228e-08
4.51286e-08
6.08604e-07
-4.98814e-08
-4.47754e-08
4.45746e-08
5.76868e-07
-4.85973e-08
4.47754e-08
5.34953e-07
-4.99594e-08
-4.99594e-08
4.45746e-08
3.57228e-08
5.76868e-07
-4.85973e-08
3.64819e-08
3.64819e-08
6.14562e-07
2.58594e-08
3.69479e-08
6.43144e-07
1.33813e-08
3.70362e-08
6.62368e-07
1.03846e-15
3.70638e-08
6.72036e-07
-1.33813e-08
3.70638e-08
6.72036e-07
-2.58594e-08
3.70362e-08
6.62368e-07
-3.64819e-08
3.69478e-08
6.43144e-07
-4.45746e-08
3.64819e-08
6.14562e-07
3.57228e-08
5.76868e-07
-4.85973e-08
4.51286e-08
2.51214e-08
6.08604e-07
-4.98814e-08
3.69478e-08
2.58594e-08
6.43144e-07
2.61598e-08
2.61598e-08
6.69392e-07
1.35335e-08
2.62e-08
6.87048e-07
4.08015e-15
2.61924e-08
6.95918e-07
-1.35334e-08
2.61924e-08
6.95918e-07
-2.61598e-08
2.62e-08
6.87048e-07
-3.69478e-08
2.61598e-08
6.69392e-07
-4.51286e-08
2.58594e-08
6.43144e-07
2.51214e-08
6.08604e-07
-4.98814e-08
4.5209e-08
1.29056e-08
6.29906e-07
-4.9996e-08
3.70362e-08
1.33813e-08
6.62368e-07
2.62e-08
1.35335e-08
6.87048e-07
1.35469e-08
1.35469e-08
7.0363e-07
4.00408e-15
1.35357e-08
7.11948e-07
-1.35469e-08
1.35357e-08
7.11948e-07
-2.62e-08
1.35469e-08
7.0363e-07
-3.70362e-08
1.35335e-08
6.87048e-07
-4.5209e-08
1.33813e-08
6.62368e-07
1.29056e-08
6.29906e-07
-4.9996e-08
4.5281e-08
-2.94638e-15
6.40625e-07
-5.02386e-08
3.70638e-08
-3.776e-15
6.72036e-07
2.61924e-08
1.19111e-15
6.95918e-07
1.35357e-08
4.24802e-15
7.11948e-07
3.61958e-15
4.03068e-15
7.19989e-07
-1.35357e-08
1.87813e-15
7.19989e-07
-2.61924e-08
5.90745e-16
7.11948e-07
-3.70638e-08
6.46083e-15
6.95918e-07
-4.5281e-08
7.5773e-15
6.72036e-07
-4.10119e-16
6.40625e-07
-5.02386e-08
4.5281e-08
-1.29056e-08
6.40625e-07
-5.02386e-08
3.70638e-08
-1.33813e-08
6.72036e-07
2.61924e-08
-1.35335e-08
6.95918e-07
1.35357e-08
-1.35469e-08
7.11948e-07
1.45197e-15
-1.35357e-08
7.19989e-07
-1.35357e-08
-1.35357e-08
7.19989e-07
-2.61924e-08
-1.35469e-08
7.11948e-07
-3.70638e-08
-1.35334e-08
6.95918e-07
-4.5281e-08
-1.33813e-08
6.72036e-07
-1.29056e-08
6.40625e-07
-5.02386e-08
4.52089e-08
-2.51214e-08
6.29906e-07
-4.9996e-08
3.70362e-08
-2.58594e-08
6.62368e-07
2.62e-08
-2.61598e-08
6.87048e-07
1.35469e-08
-2.62e-08
7.0363e-07
9.90934e-16
-2.61924e-08
7.11948e-07
-1.35469e-08
-2.61924e-08
7.11948e-07
-2.62e-08
-2.62e-08
7.0363e-07
-3.70362e-08
-2.61598e-08
6.87048e-07
-4.5209e-08
-2.58594e-08
6.62368e-07
-2.51214e-08
6.29906e-07
-4.9996e-08
4.51286e-08
-3.57228e-08
6.08604e-07
-4.98814e-08
3.69478e-08
-3.64819e-08
6.43144e-07
2.61598e-08
-3.69478e-08
6.69392e-07
1.35335e-08
-3.70362e-08
6.87048e-07
2.81862e-15
-3.70638e-08
6.95918e-07
-1.35334e-08
-3.70638e-08
6.95918e-07
-2.61598e-08
-3.70362e-08
6.87048e-07
-3.69478e-08
-3.69478e-08
6.69392e-07
-4.51286e-08
-3.64818e-08
6.43144e-07
-3.57228e-08
6.08604e-07
-4.98814e-08
4.45746e-08
-4.47753e-08
5.76868e-07
-4.85973e-08
3.64819e-08
-4.45746e-08
6.14562e-07
2.58594e-08
-4.51286e-08
6.43144e-07
1.33813e-08
-4.52089e-08
6.62368e-07
6.45436e-15
-4.5281e-08
6.72036e-07
-1.33813e-08
-4.5281e-08
6.72036e-07
-2.58594e-08
-4.5209e-08
6.62368e-07
-3.64818e-08
-4.51286e-08
6.43144e-07
-4.45746e-08
-4.45746e-08
6.14562e-07
-4.47754e-08
5.76868e-07
-4.85973e-08
4.47753e-08
5.34953e-07
-4.99594e-08
-4.99594e-08
3.57228e-08
5.76868e-07
-4.85973e-08
2.51214e-08
6.08604e-07
-4.98814e-08
1.29056e-08
6.29906e-07
-4.9996e-08
-6.75699e-16
6.40625e-07
-5.02386e-08
-1.29056e-08
6.40625e-07
-5.02386e-08
-2.51214e-08
6.29906e-07
-4.9996e-08
-3.57228e-08
6.08604e-07
-4.98814e-08
-4.47754e-08
5.76868e-07
-4.85973e-08
5.34953e-07
-4.99594e-08
-4.99594e-08
2.07531e-08
2.07531e-08
5.37188e-07
-2.18707e-08
-2.18707e-08
1.70615e-08
2.11871e-08
5.81259e-07
-2.1886e-08
1.21711e-08
2.1688e-08
6.14555e-07
-2.27483e-08
6.29854e-09
2.18987e-08
6.36907e-07
-2.30272e-08
6.74821e-16
2.20062e-08
6.48143e-07
-2.32259e-08
-6.29853e-09
2.20062e-08
6.48143e-07
-2.32259e-08
-1.21711e-08
2.18987e-08
6.36907e-07
-2.30272e-08
-1.70615e-08
2.1688e-08
6.14555e-07
-2.27483e-08
-2.0753e-08
2.11871e-08
5.81259e-07
-2.1886e-08
2.07531e-08
5.37188e-07
-2.18707e-08
-2.18707e-08
2.11871e-08
1.70615e-08
5.81259e-07
-2.1886e-08
1.78329e-08
1.78329e-08
6.2127e-07
1.28213e-08
1.82808e-08
6.51563e-07
6.68621e-09
1.84797e-08
6.71922e-07
2.51394e-15
1.85733e-08
6.82155e-07
-6.6862e-09
1.85733e-08
6.82155e-07
-1.28213e-08
1.84797e-08
6.71922e-07
-1.78329e-08
1.82808e-08
6.51563e-07
-2.11871e-08
1.78329e-08
6.2127e-07
1.70615e-08
5.81259e-07
-2.1886e-08
2.1688e-08
1.21711e-08
6.14555e-07
-2.27483e-08
1.82808e-08
1.28213e-08
6.51563e-07
1.31673e-08
1.31673e-08
6.79619e-07
6.88035e-09
1.33331e-08
6.98482e-07
4.82617e-15
1.34096e-08
7.07962e-07
-6.88034e-09
1.34096e-08
7.07962e-07
-1.31673e-08
1.33331e-08
6.98482e-07
-1.82808e-08
1.31673e-08
6.79619e-07
-2.1688e-08
1.28213e-08
6.51563e-07
1.2171e-08
6.14555e-07
-2.27483e-08
2.18987e-08
6.29855e-09
6.36907e-07
-2.30272e-08
1.84797e-08
6.6862e-09
6.71922e-07
1.33331e-08
6.88035e-09
6.98482e-07
6.97841e-09
6.97841e-09
7.16339e-07
4.43292e-15
7.0224e-09
7.25314e-07
-6.9784e-09
7.0224e-09
7.25314e-07
-1.33331e-08
6.97841e-09
7.16339e-07
-1.84797e-08
6.88035e-09
6.98482e-07
-2.18987e-08
6.68621e-09
6.71922e-07
6.29853e-09
6.36907e-07
-2.30272e-08
2.20062e-08
3.38348e-15
6.48143e-07
-2.32259e-08
1.85733e-08
-2.64628e-16
6.82155e-07
1.34096e-08
4.35031e-15
7.07962e-07
7.0224e-09
5.89646e-15
7.25314e-07
3.39976e-15
4.46307e-15
7.34034e-07
-7.02239e-09
2.72076e-15
7.34034e-07
-1.34096e-08
1.09522e-15
7.25314e-07
-1.85733e-08
4.0849e-15
7.07962e-07
-2.20062e-08
4.87548e-15
6.82155e-07
1.233e-15
6.48143e-07
-2.32259e-08
2.20062e-08
-6.29853e-09
6.48143e-07
-2.32259e-08
1.85733e-08
-6.6862e-09
6.82155e-07
1.34096e-08
-6.88034e-09
7.07962e-07
7.02239e-09
-6.9784e-09
7.25314e-07
1.00785e-15
-7.02239e-09
7.34034e-07
-7.02239e-09
-7.02239e-09
7.34034e-07
-1.34096e-08
-6.9784e-09
7.25314e-07
-1.85733e-08
-6.88034e-09
7.07962e-07
-2.20062e-08
-6.68619e-09
6.82155e-07
-6.29853e-09
6.48143e-07
-2.32259e-08
2.18987e-08
-1.2171e-08
6.36907e-07
-2.30272e-08
1.84797e-08
-1.28213e-08
6.71922e-07
1.33331e-08
-1.31673e-08
6.98482e-07
6.9784e-09
-1.33331e-08
7.16339e-07
5.65602e-16
-1.34096e-08
7.25314e-07
-6.9784e-09
-1.34096e-08
7.25314e-07
-1.33331e-08
-1.33331e-08
7.16339e-07
-1.84797e-08
-1.31673e-08
6.98482e-07
-2.18987e-08
-1.28213e-08
6.71922e-07
-1.21711e-08
6.36907e-07
-2.30272e-08
2.16879e-08
-1.70615e-08
6.14555e-07
-2.27483e-08
1.82808e-08
-1.78329e-08
6.51563e-07
1.31673e-08
-1.82808e-08
6.79619e-07
6.88035e-09
-1.84797e-08
6.98482e-07
2.95556e-15
-1.85733e-08
7.07962e-07
-6.88034e-09
-1.85733e-08
7.07962e-07
-1.31673e-08
-1.84797e-08
6.98482e-07
-1.82808e-08
-1.82808e-08
6.79619e-07
-2.16879e-08
-1.78329e-08
6.51563e-07
-1.70615e-08
6.14555e-07
-2.27483e-08
2.11871e-08
-2.0753e-08
5.81259e-07
-2.1886e-08
1.78329e-08
-2.1187e-08
6.2127e-07
1.28213e-08
-2.1688e-08
6.51563e-07
6.6862e-09
-2.18987e-08
6.71922e-07
1.90374e-15
-2.20062e-08
6.82155e-07
-6.6862e-09
-2.20062e-08
6.82155e-07
-1.28213e-08
-2.18988e-08
6.71922e-07
-1.78329e-08
-2.1688e-08
6.51563e-07
-2.1187e-08
-2.1187e-08
6.2127e-07
-2.07531e-08
5.81259e-07
-2.1886e-08
2.07531e-08
5.37188e-07
-2.18707e-08
-2.18707e-08
1.70615e-08
5.81259e-07
-2.1886e-08
1.2171e-08
6.14555e-07
-2.27483e-08
6.29853e-09
6.36907e-07
-2.30272e-08
-2.29934e-16
6.48143e-07
-2.32259e-08
-6.29854e-09
6.48143e-07
-2.32259e-08
-1.21711e-08
6.36907e-07
-2.30272e-08
-1.70615e-08
6.14555e-07
-2.27483e-08
-2.07531e-08
5.81259e-07
-2.1886e-08
5.37188e-07
-2.18707e-08
-2.18707e-08
7.44803e-09
7.44802e-09
5.37104e-07
-7.40606e-09
-7.40606e-09
6.42374e-09
8.11934e-09
5.82043e-07
-7.87941e-09
4.72944e-09
8.68072e-09
6.1608e-07
-8.5109e-09
2.49404e-09
8.99835e-09
6.38974e-07
-8.82992e-09
2.58391e-15
9.15447e-09
6.50491e-07
-9.00824e-09
-2.49403e-09
9.15447e-09
6.50491e-07
-9.00824e-09
-4.72942e-09
8.99834e-09
6.38974e-07
-8.82991e-09
-6.42372e-09
8.68071e-09
6.1608e-07
-8.5109e-09
-7.44802e-09
8.11935e-09
5.82043e-07
-7.87941e-09
7.44804e-09
5.37104e-07
-7.40606e-09
-7.40606e-09
8.11934e-09
6.42373e-09
5.82043e-07
-7.87942e-09
7.16132e-09
7.16132e-09
6.23186e-07
5.3139e-09
7.66587e-09
6.54425e-07
2.82169e-09
7.95392e-09
6.75458e-07
2.17938e-16
8.09163e-09
6.8604e-07
-2.82169e-09
8.09163e-09
6.8604e-07
-5.31391e-09
7.95391e-09
6.75458e-07
-7.16133e-09
7.66586e-09
6.54425e-07
-8.11935e-09
7.16132e-09
6.23186e-07
6.42374e-09
5.82043e-07
-7.87941e-09
8.68071e-09
4.72943e-09
6.1608e-07
-8.5109e-09
7.66586e-09
5.3139e-09
6.54425e-07
5.69066e-09
5.69066e-09
6.8357e-07
3.02349e-09
5.90692e-09
7.03196e-07
2.20654e-15
6.00864e-09
7.13068e-07
-3.02349e-09
6.00864e-09
7.13068e-07
-5.69066e-09
5.90692e-09
7.03196e-07
-7.66587e-09
5.69066e-09
6.8357e-07
-8.68073e-09
5.31391e-09
6.54425e-07
4.72943e-09
6.1608e-07
-8.5109e-09
8.99835e-09
2.49404e-09
6.38974e-07
-8.82991e-09
7.95391e-09
2.82169e-09
6.75458e-07
5.90692e-09
3.0235e-09
7.03196e-07
3.13993e-09
3.13993e-09
7.21873e-07
2.92072e-15
3.19426e-09
7.31268e-07
-3.13992e-09
3.19426e-09
7.31268e-07
-5.90692e-09
3.13993e-09
7.21873e-07
-7.95391e-09
3.02349e-09
7.03196e-07
-8.99834e-09
2.82169e-09
6.75458e-07
2.49403e-09
6.38974e-07
-8.82991e-09
9.15447e-09
1.00537e-15
6.50491e-07
-9.00824e-09
8.09163e-09
-3.36973e-16
6.8604e-07
6.00864e-09
2.10776e-15
7.13068e-07
3.19426e-09
3.00498e-15
7.31268e-07
3.51504e-15
3.8145e-15
7.40422e-07
-3.19425e-09
2.7222e-15
7.40422e-07
-6.00863e-09
2.15048e-15
7.31268e-07
-8.09163e-09
4.46846e-15
7.13068e-07
-9.15447e-09
3.83132e-15
6.8604e-07
4.74303e-16
6.50491e-07
-9.00824e-09
9.15447e-09
-2.49404e-09
6.50491e-07
-9.00824e-09
8.09163e-09
-2.82169e-09
6.8604e-07
6.00864e-09
-3.02349e-09
7.13068e-07
3.19425e-09
-3.13992e-09
7.31268e-07
2.48383e-15
-3.19425e-09
7.40422e-07
-3.19425e-09
-3.19425e-09
7.40422e-07
-6.00863e-09
-3.13992e-09
7.31268e-07
-8.09162e-09
-3.02349e-09
7.13068e-07
-9.15447e-09
-2.82168e-09
6.8604e-07
-2.49403e-09
6.50491e-07
-9.00824e-09
8.99834e-09
-4.72943e-09
6.38974e-07
-8.82991e-09
7.95391e-09
-5.3139e-09
6.75458e-07
5.90692e-09
-5.69066e-09
7.03196e-07
3.13993e-09
-5.90692e-09
7.21873e-07
2.04587e-15
-6.00864e-09
7.31268e-07
-3.13992e-09
-6.00864e-09
7.31268e-07
-5.90692e-09
-5.90692e-09
7.21873e-07
-7.95391e-09
-5.69065e-09
7.03196e-07
-8.99835e-09
-5.31389e-09
6.75458e-07
-4.72943e-09
6.38974e-07
-8.82991e-09
8.68072e-09
-6.42373e-09
6.1608e-07
-8.5109e-09
7.66586e-09
-7.16132e-09
6.54425e-07
5.69066e-09
-7.66587e-09
6.8357e-07
3.02349e-09
-7.95392e-09
7.03196e-07
3.42828e-15
-8.09163e-09
7.13068e-07
-3.02349e-09
-8.09163e-09
7.13068e-07
-5.69065e-09
-7.95391e-09
7.03196e-07
-7.66586e-09
-7.66585e-09
6.8357e-07
-8.68072e-09
-7.16131e-09
6.54425e-07
-6.42374e-09
6.1608e-07
-8.51089e-09
8.11935e-09
-7.44803e-09
5.82043e-07
-7.87942e-09
7.16133e-09
-8.11934e-09
6.23186e-07
5.31391e-09
-8.68073e-09
6.54425e-07
2.82169e-09
-8.99835e-09
6.75458e-07
2.97233e-15
-9.15447e-09
6.8604e-07
-2.82169e-09
-9.15447e-09
6.8604e-07
-5.3139e-09
-8.99835e-09
6.75458e-07
-7.16132e-09
-8.6807e-09
6.54425e-07
-8.11935e-09
-8.11934e-09
6.23186e-07
-7.44804e-09
5.82043e-07
-7.87941e-09
7.44803e-09
5.37104e-07
-7.40606e-09
-7.40606e-09
6.42373e-09
5.82043e-07
-7.87941e-09
4.72943e-09
6.1608e-07
-8.5109e-09
2.49404e-09
6.38974e-07
-8.82992e-09
2.69667e-16
6.50491e-07
-9.00824e-09
-2.49404e-09
6.50491e-07
-9.00824e-09
-4.72943e-09
6.38974e-07
-8.82991e-09
-6.42373e-09
6.1608e-07
-8.51089e-09
-7.44803e-09
5.82043e-07
-7.8794e-09
5.37104e-07
-7.40607e-09
-7.40607e-09
2.52625e-09
2.52625e-09
5.36925e-07
-2.43665e-09
-2.43665e-09
2.23494e-09
2.86592e-09
5.82142e-07
-2.6738e-09
1.67426e-09
3.15432e-09
6.16438e-07
-2.9522e-09
8.92459e-10
3.33407e-09
6.39534e-07
-3.11209e-09
-1.39206e-16
3.42495e-09
6.51158e-07
-3.1997e-09
-8.9246e-10
3.42495e-09
6.51158e-07
-3.1997e-09
-1.67426e-09
3.33406e-09
6.39534e-07
-3.11209e-09
-2.23492e-09
3.1543e-09
6.16438e-07
-2.9522e-09
-2.52623e-09
2.86592e-09
5.82142e-07
-2.67381e-09
2.52625e-09
5.36925e-07
-2.43664e-09
-2.43664e-09
2.86594e-09
2.23493e-09
5.82142e-07
-2.67381e-09
2.60651e-09
2.60651e-09
6.23705e-07
1.97607e-09
2.88358e-09
6.55326e-07
1.06281e-09
3.05778e-09
6.76648e-07
1.44739e-15
3.14447e-09
6.87383e-07
-1.06281e-09
3.14447e-09
6.87383e-07
-1.97606e-09
3.05778e-09
6.76648e-07
-2.60651e-09
2.88357e-09
6.55326e-07
-2.86592e-09
2.6065e-09
6.23705e-07
2.23493e-09
5.82142e-07
-2.6738e-09
3.15433e-09
1.67426e-09
6.16438e-07
-2.95221e-09
2.88358e-09
1.97607e-09
6.55326e-07
2.19194e-09
2.19194e-09
6.84953e-07
1.18083e-09
2.32821e-09
7.04936e-07
3.46805e-15
2.39528e-09
7.14998e-07
-1.18082e-09
2.39528e-09
7.14998e-07
-2.19194e-09
2.32821e-09
7.04936e-07
-2.88358e-09
2.19194e-09
6.84953e-07
-3.15432e-09
1.97606e-09
6.55326e-07
1.67425e-09
6.16438e-07
-2.95221e-09
3.33406e-09
8.92461e-10
6.39534e-07
-3.11209e-09
3.05778e-09
1.06281e-09
6.76648e-07
2.32821e-09
1.18083e-09
7.04936e-07
1.25558e-09
1.25558e-09
7.24019e-07
3.80821e-15
1.29217e-09
7.33627e-07
-1.25557e-09
1.29217e-09
7.33627e-07
-2.3282e-09
1.25558e-09
7.24019e-07
-3.05777e-09
1.18082e-09
7.04936e-07
-3.33406e-09
1.06281e-09
6.76648e-07
8.92454e-10
6.39534e-07
-3.11209e-09
3.42496e-09
-2.43772e-16
6.51158e-07
-3.1997e-09
3.14447e-09
3.41398e-15
6.87383e-07
2.39528e-09
5.03198e-15
7.14998e-07
1.29217e-09
4.80976e-15
7.33627e-07
3.01988e-15
4.41707e-15
7.43007e-07
-1.29216e-09
2.86744e-15
7.43007e-07
-2.39527e-09
1.61167e-15
7.33627e-07
-3.14446e-09
2.6097e-15
7.14998e-07
-3.42495e-09
1.6694e-15
6.87383e-07
2.70233e-16
6.51158e-07
-3.1997e-09
3.42495e-09
-8.9246e-10
6.51158e-07
-3.1997e-09
3.14447e-09
-1.0628e-09
6.87383e-07
2.39527e-09
-1.18082e-09
7.14998e-07
1.29217e-09
-1.25557e-09
7.33627e-07
1.54041e-15
-1.29216e-09
7.43007e-07
-1.29216e-09
-1.29216e-09
7.43007e-07
-2.39527e-09
-1.25558e-09
7.33627e-07
-3.14446e-09
-1.18082e-09
7.14998e-07
-3.42495e-09
-1.0628e-09
6.87383e-07
-8.92455e-10
6.51158e-07
-3.1997e-09
3.33406e-09
-1.67426e-09
6.39534e-07
-3.11209e-09
3.05777e-09
-1.97606e-09
6.76648e-07
2.32821e-09
-2.19193e-09
7.04936e-07
1.25558e-09
-2.32821e-09
7.24019e-07
7.65835e-16
-2.39527e-09
7.33627e-07
-1.25558e-09
-2.39527e-09
7.33627e-07
-2.32821e-09
-2.32821e-09
7.24019e-07
-3.05777e-09
-2.19193e-09
7.04936e-07
-3.33406e-09
-1.97606e-09
6.76648e-07
-1.67426e-09
6.39534e-07
-3.11209e-09
3.1543e-09
-2.23492e-09
6.16438e-07
-2.9522e-09
2.88357e-09
-2.6065e-09
6.55326e-07
2.19193e-09
-2.88357e-09
6.84953e-07
1.18082e-09
-3.05778e-09
7.04936e-07
2.01396e-15
-3.14446e-09
7.14998e-07
-1.18082e-09
-3.14446e-09
7.14998e-07
-2.19193e-09
-3.05778e-09
7.04936e-07
-2.88357e-09
-2.88357e-09
6.84953e-07
-3.15431e-09
-2.6065e-09
6.55326e-07
-2.23493e-09
6.16438e-07
-2.95219e-09
2.86593e-09
-2.52625e-09
5.82142e-07
-2.67381e-09
2.6065e-09
-2.86591e-09
6.23705e-07
1.97606e-09
-3.15431e-09
6.55326e-07
1.0628e-09
-3.33406e-09
6.76648e-07
7.89865e-16
-3.42495e-09
6.87383e-07
-1.0628e-09
-3.42496e-09
6.87383e-07
-1.97606e-09
-3.33407e-09
6.76648e-07
-2.6065e-09
-3.15431e-09
6.55326e-07
-2.86592e-09
-2.86592e-09
6.23705e-07
-2.52625e-09
5.82142e-07
-2.6738e-09
2.52624e-09
5.36925e-07
-2.43664e-09
-2.43664e-09
2.23493e-09
5.82142e-07
-2.6738e-09
1.67426e-09
6.16438e-07
-2.9522e-09
8.92455e-10
6.39534e-07
-3.11209e-09
1.25485e-15
6.51158e-07
-3.1997e-09
-8.92453e-10
6.51158e-07
-3.1997e-09
-1.67426e-09
6.39534e-07
-3.11209e-09
-2.23493e-09
6.16438e-07
-2.9522e-09
-2.52625e-09
5.82142e-07
-2.6738e-09
5.36925e-07
-2.43665e-09
-2.43665e-09
8.93602e-10
8.93601e-10
5.36833e-07
-8.47394e-10
-8.47399e-10
8.00268e-10
1.03027e-09
5.82146e-07
-9.40434e-10
6.04233e-10
1.14768e-09
6.16533e-07
-1.04706e-09
3.23676e-10
1.22396e-09
6.39702e-07
-1.11123e-09
-1.05328e-15
1.26293e-09
6.51365e-07
-1.14608e-09
-3.2368e-10
1.26293e-09
6.51365e-07
-1.14608e-09
-6.04234e-10
1.22395e-09
6.39702e-07
-1.11122e-09
-8.00268e-10
1.14768e-09
6.16533e-07
-1.04706e-09
-8.93601e-10
1.03028e-09
5.82146e-07
-9.40441e-10
8.93601e-10
5.36833e-07
-8.47394e-10
-8.47397e-10
1.03029e-09
8.00259e-10
5.82146e-07
-9.4044e-10
9.52081e-10
9.52077e-10
6.23862e-07
7.29723e-10
1.06951e-09
6.55627e-07
3.95108e-10
1.14655e-09
6.7706e-07
-1.85355e-15
1.18564e-09
6.87855e-07
-3.95113e-10
1.18564e-09
6.87855e-07
-7.29733e-10
1.14655e-09
6.7706e-07
-9.52094e-10
1.06951e-09
6.55627e-07
-1.0303e-09
9.52082e-10
6.23862e-07
8.00249e-10
5.82146e-07
-9.40443e-10
1.14768e-09
6.04226e-10
6.16533e-07
-1.04706e-09
1.06951e-09
7.29722e-10
6.55627e-07
8.23959e-10
8.23962e-10
6.85444e-07
4.47461e-10
8.86148e-10
7.05573e-07
1.29799e-15
9.17479e-10
7.15714e-07
-4.47459e-10
9.17478e-10
7.15714e-07
-8.2396e-10
8.86147e-10
7.05573e-07
-1.06951e-09
8.23963e-10
6.85444e-07
-1.14769e-09
7.29728e-10
6.55627e-07
6.0422e-10
6.16533e-07
-1.04707e-09
1.22395e-09
3.23675e-10
6.39702e-07
-1.11122e-09
1.14654e-09
3.95108e-10
6.7706e-07
8.86141e-10
4.47463e-10
7.05573e-07
4.82186e-10
4.8219e-10
7.24827e-07
2.52787e-15
4.99627e-10
7.34527e-07
-4.82182e-10
4.99626e-10
7.34527e-07
-8.86137e-10
4.82189e-10
7.24827e-07
-1.14654e-09
4.47463e-10
7.05573e-07
-1.22394e-09
3.95109e-10
6.7706e-07
3.23673e-10
6.39702e-07
-1.11122e-09
1.26293e-09
-1.29569e-15
6.51365e-07
-1.14608e-09
1.18563e-09
1.79999e-15
6.87855e-07
9.17475e-10
3.4577e-15
7.15714e-07
4.99625e-10
3.6843e-15
7.34527e-07
2.77769e-15
3.79886e-15
7.44006e-07
-4.99619e-10
3.49681e-15
7.44006e-07
-9.17471e-10
3.44052e-15
7.34527e-07
-1.18563e-09
4.14818e-15
7.15714e-07
-1.26293e-09
2.0307e-15
6.87855e-07
-1.41767e-16
6.51365e-07
-1.14608e-09
1.26293e-09
-3.23679e-10
6.51365e-07
-1.14608e-09
1.18563e-09
-3.95104e-10
6.87855e-07
9.17474e-10
-4.47456e-10
7.15714e-07
4.99624e-10
-4.82183e-10
7.34527e-07
2.81856e-15
-4.9962e-10
7.44006e-07
-4.99619e-10
-4.99619e-10
7.44006e-07
-9.1747e-10
-4.82182e-10
7.34527e-07
-1.18563e-09
-4.47454e-10
7.15714e-07
-1.26293e-09
-3.95105e-10
6.87855e-07
-3.23674e-10
6.51365e-07
-1.14608e-09
1.22394e-09
-6.04228e-10
6.39702e-07
-1.11122e-09
1.14653e-09
-7.2972e-10
6.7706e-07
8.86138e-10
-8.23958e-10
7.05573e-07
4.82184e-10
-8.86143e-10
7.24827e-07
2.00637e-15
-9.17474e-10
7.34527e-07
-4.82181e-10
-9.17473e-10
7.34527e-07
-8.86136e-10
-8.86139e-10
7.24827e-07
-1.14654e-09
-8.23953e-10
7.05573e-07
-1.22394e-09
-7.29722e-10
6.7706e-07
-6.04222e-10
6.39702e-07
-1.11122e-09
1.14766e-09
-8.0025e-10
6.16533e-07
-1.04706e-09
1.0695e-09
-9.52085e-10
6.55627e-07
8.23955e-10
-1.06951e-09
6.85444e-07
4.47459e-10
-1.14655e-09
7.05573e-07
1.81427e-15
-1.18563e-09
7.15714e-07
-4.47456e-10
-1.18563e-09
7.15714e-07
-8.23955e-10
-1.14654e-09
7.05573e-07
-1.06951e-09
-1.0695e-09
6.85444e-07
-1.14768e-09
-9.52081e-10
6.55627e-07
-8.00254e-10
6.16533e-07
-1.04706e-09
1.0303e-09
-8.936e-10
5.82146e-07
-9.40443e-10
9.52088e-10
-1.03028e-09
6.23862e-07
7.29729e-10
-1.14768e-09
6.55627e-07
3.95111e-10
-1.22395e-09
6.7706e-07
8.67244e-16
-1.26293e-09
6.87855e-07
-3.95109e-10
-1.26293e-09
6.87855e-07
-7.29726e-10
-1.22395e-09
6.7706e-07
-9.52089e-10
-1.14767e-09
6.55627e-07
-1.0303e-09
-1.03028e-09
6.23862e-07
-8.93605e-10
5.82146e-07
-9.40437e-10
8.93608e-10
5.36833e-07
-8.47396e-10
-8.47399e-10
8.00265e-10
5.82146e-07
-9.40431e-10
6.04231e-10
6.16533e-07
-1.04706e-09
3.23676e-10
6.39702e-07
-1.11122e-09
-9.81173e-17
6.51365e-07
-1.14608e-09
-3.23677e-10
6.51365e-07
-1.14608e-09
-6.04231e-10
6.39702e-07
-1.11122e-09
-8.00258e-10
6.16533e-07
-1.04706e-09
-8.93602e-10
5.82146e-07
-9.40431e-10
5.36833e-07
-8.47398e-10
-8.47398e-10
3.18542e-10
3.18547e-10
5.36793e-07
-2.98647e-10
-2.98648e-10
2.88128e-10
3.72198e-10
5.82139e-07
-3.34743e-10
2.19025e-10
4.18575e-10
6.16559e-07
-3.75347e-10
1.17837e-10
4.49322e-10
6.39754e-07
-4.00425e-10
-4.3296e-15
4.651e-10
6.51432e-07
-4.13936e-10
-1.17848e-10
4.65099e-10
6.51432e-07
-4.13934e-10
-2.19039e-10
4.49318e-10
6.39754e-07
-4.0042e-10
-2.88132e-10
4.18554e-10
6.16559e-07
-3.7534e-10
-3.18541e-10
3.7218e-10
5.82139e-07
-3.34736e-10
3.18543e-10
5.36793e-07
-2.98645e-10
-2.98646e-10
3.72195e-10
2.88136e-10
5.82139e-07
-3.34744e-10
3.48009e-10
3.48007e-10
6.2391e-07
2.6892e-10
3.95294e-10
6.55729e-07
1.46332e-10
4.26985e-10
6.77205e-07
4.96318e-16
4.43208e-10
6.88024e-07
-1.46332e-10
4.43208e-10
6.88024e-07
-2.68918e-10
4.26982e-10
6.77205e-07
-3.48014e-10
3.95283e-10
6.55729e-07
-3.72208e-10
3.48001e-10
6.2391e-07
2.88122e-10
5.82139e-07
-3.34748e-10
4.18587e-10
2.19022e-10
6.16559e-07
-3.75347e-10
3.95299e-10
2.68922e-10
6.55729e-07
3.07395e-10
3.07393e-10
6.8562e-07
1.6787e-10
3.33363e-10
7.05806e-07
4.2162e-15
3.46597e-10
7.15978e-07
-1.6786e-10
3.46595e-10
7.15978e-07
-3.07383e-10
3.33358e-10
7.05806e-07
-3.95286e-10
3.07384e-10
6.8562e-07
-4.18563e-10
2.68912e-10
6.55729e-07
2.19023e-10
6.16559e-07
-3.75344e-10
4.49326e-10
1.17832e-10
6.39754e-07
-4.00427e-10
4.26988e-10
1.46335e-10
6.77205e-07
3.33363e-10
1.6787e-10
7.05806e-07
1.82497e-10
1.82498e-10
7.25128e-07
4.61523e-15
1.89937e-10
7.34866e-07
-1.82487e-10
1.89936e-10
7.34866e-07
-3.33352e-10
1.82493e-10
7.25128e-07
-4.26977e-10
1.67863e-10
7.05806e-07
-4.49315e-10
1.46327e-10
6.77205e-07
1.17838e-10
6.39754e-07
-4.00423e-10
4.65099e-10
-5.16312e-15
6.51432e-07
-4.13938e-10
4.43207e-10
3.35786e-15
6.88024e-07
3.46595e-10
4.96085e-15
7.15978e-07
1.89936e-10
5.15836e-15
7.34866e-07
3.77106e-15
4.48314e-15
7.44386e-07
-1.89928e-10
3.16425e-15
7.44386e-07
-3.46588e-10
1.43865e-15
7.34866e-07
-4.43202e-10
6.41753e-16
7.15978e-07
-4.65096e-10
-2.22233e-15
6.88024e-07
1.00906e-15
6.51432e-07
-4.13937e-10
4.65097e-10
-1.17847e-10
6.51432e-07
-4.13934e-10
4.43204e-10
-1.46327e-10
6.88024e-07
3.46592e-10
-1.6786e-10
7.15978e-07
1.89934e-10
-1.82488e-10
7.34866e-07
2.36758e-15
-1.89929e-10
7.44386e-07
-1.8993e-10
-1.89929e-10
7.44386e-07
-3.46589e-10
-1.8249e-10
7.34866e-07
-4.43203e-10
-1.67863e-10
7.15978e-07
-4.65097e-10
-1.46332e-10
6.88024e-07
-1.17835e-10
6.51432e-07
-4.13939e-10
4.49319e-10
-2.19038e-10
6.39754e-07
-4.0042e-10
4.2698e-10
-2.68914e-10
6.77205e-07
3.33356e-10
-3.07383e-10
7.05806e-07
1.82492e-10
-3.33354e-10
7.25128e-07
1.1669e-15
-3.46589e-10
7.34866e-07
-1.82491e-10
-3.46589e-10
7.34866e-07
-3.33356e-10
-3.33355e-10
7.25128e-07
-4.26979e-10
-3.07387e-10
7.05806e-07
-4.49316e-10
-2.6892e-10
6.77205e-07
-2.19021e-10
6.39754e-07
-4.00421e-10
4.18567e-10
-2.88136e-10
6.16559e-07
-3.75343e-10
3.95289e-10
-3.48007e-10
6.55729e-07
3.07388e-10
-3.95286e-10
6.8562e-07
1.67866e-10
-4.26979e-10
7.05806e-07
2.24918e-15
-4.43202e-10
7.15978e-07
-1.67862e-10
-4.43202e-10
7.15978e-07
-3.07384e-10
-4.26979e-10
7.05806e-07
-3.95286e-10
-3.95289e-10
6.8562e-07
-4.18567e-10
-3.4801e-10
6.55729e-07
-2.88126e-10
6.16559e-07
-3.7534e-10
3.72193e-10
-3.18543e-10
5.82139e-07
-3.34748e-10
3.48005e-10
-3.72191e-10
6.2391e-07
2.68915e-10
-4.18561e-10
6.55729e-07
1.4633e-10
-4.49319e-10
6.77205e-07
6.11188e-16
-4.65096e-10
6.88024e-07
-1.46329e-10
-4.65095e-10
6.88024e-07
-2.68916e-10
-4.49317e-10
6.77205e-07
-3.48002e-10
-4.18575e-10
6.55729e-07
-3.72191e-10
-3.72199e-10
6.2391e-07
-3.18542e-10
5.82139e-07
-3.34737e-10
3.18537e-10
5.36793e-07
-2.9864e-10
-2.98646e-10
2.88124e-10
5.82139e-07
-3.3474e-10
2.19027e-10
6.16559e-07
-3.75343e-10
1.17837e-10
6.39754e-07
-4.00424e-10
2.67021e-15
6.51432e-07
-4.1394e-10
-1.17831e-10
6.51432e-07
-4.13939e-10
-2.19016e-10
6.39754e-07
-4.00422e-10
-2.88122e-10
6.16559e-07
-3.75344e-10
-3.1854e-10
5.82139e-07
-3.3474e-10
5.36793e-07
-2.98645e-10
-2.98644e-10
1.13837e-10
1.13839e-10
5.36777e-07
-1.06091e-10
-1.06092e-10
1.03584e-10
1.34205e-10
5.82135e-07
-1.19636e-10
7.9069e-11
1.51958e-10
6.16567e-07
-1.34758e-10
4.26595e-11
1.63912e-10
6.39771e-07
-1.44277e-10
-2.69741e-15
1.70074e-10
6.51454e-07
-1.49387e-10
-4.26668e-11
1.70073e-10
6.51454e-07
-1.49384e-10
-7.90803e-11
1.63914e-10
6.39771e-07
-1.44274e-10
-1.036e-10
1.51965e-10
6.16567e-07
-1.34756e-10
-1.13841e-10
1.34194e-10
5.82135e-07
-1.19635e-10
1.13836e-10
5.36777e-07
-1.06091e-10
-1.06093e-10
1.34198e-10
1.03588e-10
5.82135e-07
-1.19633e-10
1.26459e-10
1.2646e-10
6.23926e-07
9.82735e-11
1.44842e-10
6.55765e-07
5.36643e-11
1.57363e-10
6.77256e-07
-1.45462e-15
1.63818e-10
6.88084e-07
-5.36673e-11
1.63818e-10
6.88084e-07
-9.82771e-11
1.57364e-10
6.77256e-07
-1.26461e-10
1.44844e-10
6.55765e-07
-1.3421e-10
1.26457e-10
6.23926e-07
1.03577e-10
5.82135e-07
-1.19636e-10
1.51956e-10
7.9069e-11
6.16567e-07
-1.34754e-10
1.44841e-10
9.82758e-11
6.55765e-07
1.13391e-10
1.13393e-10
6.85683e-07
6.21774e-11
1.23772e-10
7.05891e-07
6.01411e-16
1.29107e-10
7.16075e-07
-6.21764e-11
1.29106e-10
7.16075e-07
-1.1339e-10
1.23772e-10
7.05891e-07
-1.44841e-10
1.13394e-10
6.85683e-07
-1.5196e-10
9.82752e-11
6.55765e-07
7.90636e-11
6.16567e-07
-1.3476e-10
1.63909e-10
4.26588e-11
6.39771e-07
-1.44275e-10
1.57361e-10
5.36661e-11
6.77256e-07
1.23771e-10
6.21796e-11
7.05891e-07
6.80633e-11
6.80642e-11
7.2524e-07
1.88879e-15
7.10852e-11
7.34992e-07
-6.80598e-11
7.10848e-11
7.34992e-07
-1.23767e-10
6.8064e-11
7.2524e-07
-1.57358e-10
6.21802e-11
7.05891e-07
-1.63907e-10