/*--------------------------------*- C++ -*----------------------------------*\
| =========                 |                                                 |
| \\      /  F ield         | OpenFOAM: The Open Source CFD Toolbox           |
|  \\    /   O peration     | Version:  2412                                  |
|   \\  /    A nd           | Website:  www.openfoam.com                      |
|    \\/     M anipulation  |                                                 |
\*---------------------------------------------------------------------------*/
FoamFile
{
    version     2.0;
    format      ascii;
    arch        "LSB;label=32;scalar=64";
    class       surfaceScalarField;
    location    "6.3";
    object      phi;
}
// * * * * * * * * * * * * * * * * * * * * * * * * * * * * * * * * * * * * * //

dimensions      [0 3 -1 0 0 0 0];

oriented        oriented;

internalField   nonuniform List<scalar> 
43700
(
1.86587e-07
1.86587e-07
5.49761e-07
-2.26459e-07
-2.26459e-07
1.38287e-07
1.65928e-07
5.94109e-07
-2.02352e-07
9.16891e-08
1.52509e-07
6.25661e-07
-1.92142e-07
4.55249e-08
1.43504e-07
6.4592e-07
-1.83548e-07
-7.61466e-17
1.39152e-07
6.55871e-07
-1.79569e-07
-4.55249e-08
1.39152e-07
6.55871e-07
-1.79569e-07
-9.16891e-08
1.43504e-07
6.4592e-07
-1.83548e-07
-1.38287e-07
1.52509e-07
6.25661e-07
-1.92142e-07
-1.86587e-07
1.65928e-07
5.94109e-07
-2.02352e-07
1.86587e-07
5.49761e-07
-2.26459e-07
-2.26459e-07
1.65928e-07
1.38287e-07
5.94109e-07
-2.02352e-07
1.23538e-07
1.23538e-07
6.30623e-07
8.14092e-08
1.1221e-07
6.56118e-07
4.03065e-08
1.0459e-07
6.72513e-07
2.27994e-17
1.00846e-07
6.80585e-07
-4.03065e-08
1.00846e-07
6.80585e-07
-8.14092e-08
1.0459e-07
6.72513e-07
-1.23538e-07
1.1221e-07
6.56118e-07
-1.65928e-07
1.23538e-07
6.30623e-07
1.38287e-07
5.94109e-07
-2.02352e-07
1.52509e-07
9.16891e-08
6.25661e-07
-1.92142e-07
1.1221e-07
8.14092e-08
6.56118e-07
7.34104e-08
7.34104e-08
6.77472e-07
3.62184e-08
6.80223e-08
6.91323e-07
-1.69839e-16
6.53609e-08
6.98182e-07
-3.62184e-08
6.53609e-08
6.98182e-07
-7.34104e-08
6.80223e-08
6.91323e-07
-1.1221e-07
7.34104e-08
6.77472e-07
-1.52509e-07
8.14092e-08
6.56118e-07
9.16891e-08
6.25661e-07
-1.92142e-07
1.43504e-07
4.55249e-08
6.4592e-07
-1.83548e-07
1.0459e-07
4.03065e-08
6.72513e-07
6.80223e-08
3.62184e-08
6.91323e-07
3.34539e-08
3.34539e-08
7.0364e-07
-1.29003e-17
3.20846e-08
7.09772e-07
-3.34539e-08
3.20846e-08
7.09772e-07
-6.80223e-08
3.34539e-08
7.0364e-07
-1.0459e-07
3.62184e-08
6.91323e-07
-1.43504e-07
4.03065e-08
6.72513e-07
4.55249e-08
6.4592e-07
-1.83548e-07
1.39152e-07
-6.58759e-16
6.55871e-07
-1.79569e-07
1.00846e-07
7.61526e-17
6.80585e-07
6.53609e-08
2.39646e-16
6.98182e-07
3.20846e-08
-5.48746e-17
7.09772e-07
9.23113e-18
-1.31585e-16
7.15562e-07
-3.20846e-08
3.74719e-16
7.15562e-07
-6.53609e-08
2.82176e-16
7.09772e-07
-1.00846e-07
1.10187e-16
6.98182e-07
-1.39152e-07
8.99742e-17
6.80585e-07
-2.48051e-16
6.55871e-07
-1.79569e-07
1.39152e-07
-4.55249e-08
6.55871e-07
-1.79569e-07
1.00846e-07
-4.03065e-08
6.80585e-07
6.53609e-08
-3.62184e-08
6.98182e-07
3.20846e-08
-3.34539e-08
7.09772e-07
5.2145e-16
-3.20846e-08
7.15562e-07
-3.20846e-08
-3.20846e-08
7.15562e-07
-6.53609e-08
-3.34539e-08
7.09772e-07
-1.00846e-07
-3.62184e-08
6.98182e-07
-1.39152e-07
-4.03065e-08
6.80585e-07
-4.55249e-08
6.55871e-07
-1.79569e-07
1.43504e-07
-9.16891e-08
6.4592e-07
-1.83548e-07
1.0459e-07
-8.14092e-08
6.72513e-07
6.80223e-08
-7.34104e-08
6.91323e-07
3.34539e-08
-6.80223e-08
7.0364e-07
2.38007e-16
-6.53609e-08
7.09772e-07
-3.34539e-08
-6.53609e-08
7.09772e-07
-6.80223e-08
-6.80223e-08
7.0364e-07
-1.0459e-07
-7.34104e-08
6.91323e-07
-1.43504e-07
-8.14092e-08
6.72513e-07
-9.16891e-08
6.4592e-07
-1.83548e-07
1.52509e-07
-1.38287e-07
6.25661e-07
-1.92142e-07
1.1221e-07
-1.23538e-07
6.56118e-07
7.34104e-08
-1.1221e-07
6.77472e-07
3.62184e-08
-1.0459e-07
6.91323e-07
2.05427e-16
-1.00846e-07
6.98182e-07
-3.62184e-08
-1.00846e-07
6.98182e-07
-7.34104e-08
-1.0459e-07
6.91323e-07
-1.1221e-07
-1.1221e-07
6.77472e-07
-1.52509e-07
-1.23538e-07
6.56118e-07
-1.38287e-07
6.25661e-07
-1.92142e-07
1.65928e-07
-1.86587e-07
5.94109e-07
-2.02352e-07
1.23538e-07
-1.65928e-07
6.30623e-07
8.14092e-08
-1.52509e-07
6.56118e-07
4.03065e-08
-1.43504e-07
6.72513e-07
1.74806e-16
-1.39152e-07
6.80585e-07
-4.03065e-08
-1.39152e-07
6.80585e-07
-8.14092e-08
-1.43504e-07
6.72513e-07
-1.23538e-07
-1.52509e-07
6.56118e-07
-1.65928e-07
-1.65928e-07
6.30623e-07
-1.86587e-07
5.94109e-07
-2.02352e-07
1.86587e-07
5.49761e-07
-2.26459e-07
-2.26459e-07
1.38287e-07
5.94109e-07
-2.02352e-07
9.16891e-08
6.25661e-07
-1.92142e-07
4.55249e-08
6.4592e-07
-1.83548e-07
-1.43141e-16
6.55871e-07
-1.79569e-07
-4.55249e-08
6.55871e-07
-1.79569e-07
-9.16891e-08
6.4592e-07
-1.83548e-07
-1.38287e-07
6.25661e-07
-1.92142e-07
-1.86587e-07
5.94109e-07
-2.02352e-07
5.49761e-07
-2.26459e-07
-2.26459e-07
1.2313e-07
1.2313e-07
5.85823e-07
-1.41161e-07
-1.41161e-07
9.67656e-08
1.20677e-07
6.41074e-07
-1.41277e-07
6.61052e-08
1.17369e-07
6.79097e-07
-1.40144e-07
3.33844e-08
1.14303e-07
7.02646e-07
-1.38307e-07
-7.34843e-16
1.12725e-07
7.13926e-07
-1.37396e-07
-3.33844e-08
1.12725e-07
7.13926e-07
-1.37396e-07
-6.61052e-08
1.14303e-07
7.02646e-07
-1.38307e-07
-9.67656e-08
1.17369e-07
6.79097e-07
-1.40144e-07
-1.2313e-07
1.20677e-07
6.41074e-07
-1.41277e-07
1.2313e-07
5.85823e-07
-1.41161e-07
-1.41161e-07
1.20677e-07
9.67656e-08
6.41074e-07
-1.41277e-07
9.30968e-08
9.30968e-08
6.85783e-07
6.27812e-08
8.91942e-08
7.14608e-07
3.14841e-08
8.60957e-08
7.32017e-07
-2.02928e-16
8.45078e-08
7.40286e-07
-3.14841e-08
8.45078e-08
7.40286e-07
-6.27812e-08
8.60957e-08
7.32017e-07
-9.30968e-08
8.91942e-08
7.14608e-07
-1.20677e-07
9.30968e-08
6.85783e-07
9.67656e-08
6.41074e-07
-1.41277e-07
1.17369e-07
6.61052e-08
6.79097e-07
-1.40144e-07
8.91942e-08
6.27812e-08
7.14608e-07
5.95648e-08
5.95648e-08
7.36731e-07
2.9735e-08
5.71918e-08
7.50057e-07
1.425e-16
5.59919e-08
7.56433e-07
-2.9735e-08
5.59919e-08
7.56433e-07
-5.95648e-08
5.71918e-08
7.50057e-07
-8.91942e-08
5.95648e-08
7.36731e-07
-1.17369e-07
6.27812e-08
7.14608e-07
6.61052e-08
6.79097e-07
-1.40144e-07
1.14303e-07
3.33844e-08
7.02646e-07
-1.38307e-07
8.60957e-08
3.14841e-08
7.32017e-07
5.71918e-08
2.9735e-08
7.50057e-07
2.8484e-08
2.8484e-08
7.61055e-07
2.77532e-16
2.78561e-08
7.66392e-07
-2.8484e-08
2.78561e-08
7.66392e-07
-5.71918e-08
2.8484e-08
7.61055e-07
-8.60957e-08
2.9735e-08
7.50057e-07
-1.14303e-07
3.14841e-08
7.32017e-07
3.33844e-08
7.02646e-07
-1.38307e-07
1.12725e-07
1.32062e-16
7.13926e-07
-1.37396e-07
8.45078e-08
2.95523e-16
7.40286e-07
5.59919e-08
5.58826e-16
7.56433e-07
2.78561e-08
4.37654e-16
7.66392e-07
6.78083e-17
-3.06557e-17
7.71274e-07
-2.78561e-08
4.48817e-16
7.71274e-07
-5.59919e-08
6.11632e-16
7.66392e-07
-8.45078e-08
5.2177e-17
7.56433e-07
-1.12725e-07
-1.30657e-16
7.40286e-07
1.19577e-18
7.13926e-07
-1.37396e-07
1.12725e-07
-3.33844e-08
7.13926e-07
-1.37396e-07
8.45078e-08
-3.14841e-08
7.40286e-07
5.59919e-08
-2.9735e-08
7.56433e-07
2.78561e-08
-2.8484e-08
7.66392e-07
4.34523e-16
-2.78561e-08
7.71274e-07
-2.78561e-08
-2.78561e-08
7.71274e-07
-5.59919e-08
-2.8484e-08
7.66392e-07
-8.45078e-08
-2.9735e-08
7.56433e-07
-1.12725e-07
-3.14841e-08
7.40286e-07
-3.33844e-08
7.13926e-07
-1.37396e-07
1.14303e-07
-6.61052e-08
7.02646e-07
-1.38307e-07
8.60957e-08
-6.27812e-08
7.32017e-07
5.71918e-08
-5.95648e-08
7.50057e-07
2.8484e-08
-5.71918e-08
7.61055e-07
4.30877e-16
-5.59919e-08
7.66392e-07
-2.8484e-08
-5.59919e-08
7.66392e-07
-5.71918e-08
-5.71918e-08
7.61055e-07
-8.60957e-08
-5.95648e-08
7.50057e-07
-1.14303e-07
-6.27812e-08
7.32017e-07
-6.61052e-08
7.02646e-07
-1.38307e-07
1.17369e-07
-9.67656e-08
6.79097e-07
-1.40144e-07
8.91942e-08
-9.30968e-08
7.14608e-07
5.95648e-08
-8.91942e-08
7.36731e-07
2.9735e-08
-8.60957e-08
7.50057e-07
5.38704e-16
-8.45078e-08
7.56433e-07
-2.9735e-08
-8.45078e-08
7.56433e-07
-5.95648e-08
-8.60957e-08
7.50057e-07
-8.91942e-08
-8.91942e-08
7.36731e-07
-1.17369e-07
-9.30968e-08
7.14608e-07
-9.67656e-08
6.79097e-07
-1.40144e-07
1.20677e-07
-1.2313e-07
6.41074e-07
-1.41277e-07
9.30968e-08
-1.20677e-07
6.85783e-07
6.27812e-08
-1.17369e-07
7.14608e-07
3.14841e-08
-1.14303e-07
7.32017e-07
5.24294e-16
-1.12725e-07
7.40286e-07
-3.14841e-08
-1.12725e-07
7.40286e-07
-6.27812e-08
-1.14303e-07
7.32017e-07
-9.30968e-08
-1.17369e-07
7.14608e-07
-1.20677e-07
-1.20677e-07
6.85783e-07
-1.2313e-07
6.41074e-07
-1.41277e-07
1.2313e-07
5.85823e-07
-1.41161e-07
-1.41161e-07
9.67656e-08
6.41074e-07
-1.41277e-07
6.61052e-08
6.79097e-07
-1.40144e-07
3.33844e-08
7.02646e-07
-1.38307e-07
5.6381e-17
7.13926e-07
-1.37396e-07
-3.33844e-08
7.13926e-07
-1.37396e-07
-6.61052e-08
7.02646e-07
-1.38307e-07
-9.67656e-08
6.79097e-07
-1.40144e-07
-1.2313e-07
6.41074e-07
-1.41277e-07
5.85823e-07
-1.41161e-07
-1.41161e-07
8.68454e-08
8.68454e-08
5.95633e-07
-9.17507e-08
-9.17507e-08
7.26832e-08
9.14518e-08
6.61724e-07
-9.79405e-08
5.1763e-08
9.33691e-08
7.07581e-07
-1.00933e-07
2.68103e-08
9.37921e-08
7.36046e-07
-1.02239e-07
-8.43896e-16
9.38577e-08
7.49658e-07
-1.02779e-07
-2.68103e-08
9.38577e-08
7.49658e-07
-1.02779e-07
-5.1763e-08
9.37921e-08
7.36046e-07
-1.02239e-07
-7.26833e-08
9.33691e-08
7.07581e-07
-1.00933e-07
-8.68454e-08
9.14518e-08
6.61724e-07
-9.79405e-08
8.68454e-08
5.95633e-07
-9.17507e-08
-9.17507e-08
9.14518e-08
7.26832e-08
6.61724e-07
-9.79405e-08
7.54636e-08
7.54636e-08
7.1776e-07
5.33291e-08
7.6329e-08
7.53783e-07
2.7504e-08
7.62559e-08
7.75378e-07
5.2869e-16
7.60849e-08
7.85562e-07
-2.7504e-08
7.60849e-08
7.85562e-07
-5.33291e-08
7.62559e-08
7.75378e-07
-7.54636e-08
7.6329e-08
7.53783e-07
-9.14518e-08
7.54636e-08
7.1776e-07
7.26832e-08
6.61724e-07
-9.79405e-08
9.33691e-08
5.1763e-08
7.07581e-07
-1.00933e-07
7.6329e-08
5.33291e-08
7.53783e-07
5.36215e-08
5.36215e-08
7.82146e-07
2.75807e-08
5.34009e-08
7.98952e-07
9.56312e-16
5.31959e-08
8.06902e-07
-2.75807e-08
5.31959e-08
8.06902e-07
-5.36215e-08
5.34009e-08
7.98952e-07
-7.6329e-08
5.36215e-08
7.82146e-07
-9.33691e-08
5.33291e-08
7.53783e-07
5.1763e-08
7.07581e-07
-1.00933e-07
9.37921e-08
2.68103e-08
7.36046e-07
-1.02239e-07
7.62559e-08
2.7504e-08
7.75378e-07
5.34009e-08
2.75807e-08
7.98952e-07
2.74311e-08
2.74311e-08
8.12995e-07
7.05588e-16
2.73078e-08
8.19711e-07
-2.74311e-08
2.73078e-08
8.19711e-07
-5.34009e-08
2.74311e-08
8.12995e-07
-7.62559e-08
2.75807e-08
7.98952e-07
-9.37921e-08
2.7504e-08
7.75378e-07
2.68103e-08
7.36046e-07
-1.02239e-07
9.38577e-08
-3.01067e-16
7.49658e-07
-1.02779e-07
7.60849e-08
8.86596e-16
7.85562e-07
5.31959e-08
1.10775e-15
8.06902e-07
2.73078e-08
1.13175e-15
8.19711e-07
3.41704e-16
6.88463e-16
8.2589e-07
-2.73078e-08
1.0283e-15
8.2589e-07
-5.31959e-08
1.29724e-15
8.19711e-07
-7.60849e-08
1.71861e-16
8.06902e-07
-9.38577e-08
-1.29311e-15
7.85562e-07
-1.18169e-15
7.49658e-07
-1.02779e-07
9.38577e-08
-2.68103e-08
7.49658e-07
-1.02779e-07
7.60849e-08
-2.7504e-08
7.85562e-07
5.31959e-08
-2.75807e-08
8.06902e-07
2.73078e-08
-2.74311e-08
8.19711e-07
7.67363e-16
-2.73078e-08
8.2589e-07
-2.73078e-08
-2.73078e-08
8.2589e-07
-5.31959e-08
-2.74311e-08
8.19711e-07
-7.60849e-08
-2.75807e-08
8.06902e-07
-9.38577e-08
-2.7504e-08
7.85562e-07
-2.68103e-08
7.49658e-07
-1.02779e-07
9.37921e-08
-5.1763e-08
7.36046e-07
-1.02239e-07
7.62559e-08
-5.33291e-08
7.75378e-07
5.34009e-08
-5.36215e-08
7.98952e-07
2.74311e-08
-5.34009e-08
8.12995e-07
4.4337e-16
-5.31959e-08
8.19711e-07
-2.74311e-08
-5.31959e-08
8.19711e-07
-5.34009e-08
-5.34009e-08
8.12995e-07
-7.62559e-08
-5.36215e-08
7.98952e-07
-9.37921e-08
-5.33291e-08
7.75378e-07
-5.1763e-08
7.36046e-07
-1.02239e-07
9.33691e-08
-7.26832e-08
7.07581e-07
-1.00933e-07
7.6329e-08
-7.54636e-08
7.53783e-07
5.36215e-08
-7.6329e-08
7.82146e-07
2.75807e-08
-7.62559e-08
7.98952e-07
-2.79701e-16
-7.60849e-08
8.06902e-07
-2.75807e-08
-7.60849e-08
8.06902e-07
-5.36215e-08
-7.62559e-08
7.98952e-07
-7.6329e-08
-7.6329e-08
7.82146e-07
-9.33691e-08
-7.54636e-08
7.53783e-07
-7.26832e-08
7.07581e-07
-1.00933e-07
9.14518e-08
-8.68454e-08
6.61724e-07
-9.79405e-08
7.54636e-08
-9.14518e-08
7.1776e-07
5.33291e-08
-9.33691e-08
7.53783e-07
2.7504e-08
-9.37921e-08
7.75378e-07
-1.06639e-15
-9.38577e-08
7.85562e-07
-2.7504e-08
-9.38577e-08
7.85562e-07
-5.33291e-08
-9.37921e-08
7.75378e-07
-7.54636e-08
-9.33691e-08
7.53783e-07
-9.14518e-08
-9.14518e-08
7.1776e-07
-8.68454e-08
6.61724e-07
-9.79405e-08
8.68454e-08
5.95633e-07
-9.17507e-08
-9.17507e-08
7.26832e-08
6.61724e-07
-9.79405e-08
5.1763e-08
7.07581e-07
-1.00933e-07
2.68103e-08
7.36046e-07
-1.02239e-07
-1.00093e-15
7.49658e-07
-1.02779e-07
-2.68103e-08
7.49658e-07
-1.02779e-07
-5.1763e-08
7.36046e-07
-1.02239e-07
-7.26832e-08
7.07581e-07
-1.00933e-07
-8.68454e-08
6.61724e-07
-9.79405e-08
5.95633e-07
-9.17507e-08
-9.17507e-08
3.78837e-08
3.78837e-08
5.94908e-07
-3.75213e-08
-3.75213e-08
3.3685e-08
4.35128e-08
6.65664e-07
-4.32533e-08
2.49838e-08
4.71203e-08
7.15726e-07
-4.65638e-08
1.32739e-08
4.91845e-08
7.47242e-07
-4.86709e-08
-4.66418e-16
5.0136e-08
7.62433e-07
-4.9637e-08
-1.32739e-08
5.0136e-08
7.62433e-07
-4.9637e-08
-2.49838e-08
4.91845e-08
7.47242e-07
-4.86709e-08
-3.3685e-08
4.71203e-08
7.15726e-07
-4.65638e-08
-3.78837e-08
4.35128e-08
6.65664e-07
-4.32533e-08
3.78837e-08
5.94908e-07
-3.75213e-08
-3.75213e-08
4.35128e-08
3.3685e-08
6.65664e-07
-4.32533e-08
3.82499e-08
3.82499e-08
7.28286e-07
2.82641e-08
4.12705e-08
7.69618e-07
1.49718e-08
4.29789e-08
7.94876e-07
1.27159e-15
4.37517e-08
8.06919e-07
-1.49718e-08
4.37517e-08
8.06919e-07
-2.82641e-08
4.29789e-08
7.94876e-07
-3.82499e-08
4.12705e-08
7.69618e-07
-4.35128e-08
3.82499e-08
7.28286e-07
3.3685e-08
6.65664e-07
-4.32533e-08
4.71203e-08
2.49838e-08
7.15726e-07
-4.65638e-08
4.12705e-08
2.82641e-08
7.69618e-07
3.04008e-08
3.04008e-08
8.03885e-07
1.60755e-08
3.16003e-08
8.24656e-07
1.2786e-15
3.21341e-08
8.34595e-07
-1.60755e-08
3.21341e-08
8.34595e-07
-3.04008e-08
3.16003e-08
8.24656e-07
-4.12705e-08
3.04008e-08
8.03885e-07
-4.71203e-08
2.82641e-08
7.69618e-07
2.49838e-08
7.15726e-07
-4.65638e-08
4.91845e-08
1.32739e-08
7.47242e-07
-4.86709e-08
4.29789e-08
1.49718e-08
7.94876e-07
3.16003e-08
1.60755e-08
8.24656e-07
1.66935e-08
1.66935e-08
8.42808e-07
7.06196e-16
1.6966e-08
8.51573e-07
-1.66935e-08
1.6966e-08
8.51573e-07
-3.16003e-08
1.66935e-08
8.42808e-07
-4.29789e-08
1.60755e-08
8.24656e-07
-4.91845e-08
1.49718e-08
7.94876e-07
1.32739e-08
7.47242e-07
-4.86709e-08
5.0136e-08
1.9534e-16
7.62433e-07
-4.9637e-08
4.37517e-08
1.80313e-15
8.06919e-07
3.21341e-08
1.27164e-15
8.34595e-07
1.6966e-08
9.06688e-16
8.51573e-07
7.24183e-16
9.00569e-16
8.59822e-07
-1.6966e-08
1.4508e-15
8.59822e-07
-3.21341e-08
1.68315e-15
8.51573e-07
-4.37517e-08
4.55814e-16
8.34595e-07
-5.0136e-08
-1.4655e-15
8.06919e-07
-2.13318e-15
7.62433e-07
-4.9637e-08
5.0136e-08
-1.32739e-08
7.62433e-07
-4.9637e-08
4.37517e-08
-1.49718e-08
8.06919e-07
3.21341e-08
-1.60755e-08
8.34595e-07
1.6966e-08
-1.66935e-08
8.51573e-07
1.34875e-15
-1.6966e-08
8.59822e-07
-1.6966e-08
-1.6966e-08
8.59822e-07
-3.21341e-08
-1.66935e-08
8.51573e-07
-4.37517e-08
-1.60755e-08
8.34595e-07
-5.0136e-08
-1.49718e-08
8.06919e-07
-1.32739e-08
7.62433e-07
-4.9637e-08
4.91845e-08
-2.49838e-08
7.47242e-07
-4.86709e-08
4.29789e-08
-2.82641e-08
7.94876e-07
3.16003e-08
-3.04008e-08
8.24656e-07
1.66935e-08
-3.16003e-08
8.42808e-07
1.27076e-15
-3.21341e-08
8.51573e-07
-1.66935e-08
-3.21341e-08
8.51573e-07
-3.16003e-08
-3.16003e-08
8.42808e-07
-4.29789e-08
-3.04008e-08
8.24656e-07
-4.91845e-08
-2.82641e-08
7.94876e-07
-2.49838e-08
7.47242e-07
-4.86709e-08
4.71203e-08
-3.3685e-08
7.15726e-07
-4.65638e-08
4.12705e-08
-3.82499e-08
7.69618e-07
3.04008e-08
-4.12705e-08
8.03885e-07
1.60755e-08
-4.29789e-08
8.24656e-07
3.78568e-16
-4.37517e-08
8.34595e-07
-1.60755e-08
-4.37517e-08
8.34595e-07
-3.04008e-08
-4.29789e-08
8.24656e-07
-4.12705e-08
-4.12705e-08
8.03885e-07
-4.71203e-08
-3.82499e-08
7.69618e-07
-3.3685e-08
7.15726e-07
-4.65638e-08
4.35128e-08
-3.78837e-08
6.65664e-07
-4.32533e-08
3.82499e-08
-4.35128e-08
7.28286e-07
2.82641e-08
-4.71203e-08
7.69618e-07
1.49718e-08
-4.91845e-08
7.94876e-07
-1.3146e-15
-5.0136e-08
8.06919e-07
-1.49718e-08
-5.0136e-08
8.06919e-07
-2.82641e-08
-4.91845e-08
7.94876e-07
-3.82499e-08
-4.71203e-08
7.69618e-07
-4.35128e-08
-4.35128e-08
7.28286e-07
-3.78837e-08
6.65664e-07
-4.32533e-08
3.78837e-08
5.94908e-07
-3.75213e-08
-3.75213e-08
3.3685e-08
6.65664e-07
-4.32533e-08
2.49838e-08
7.15726e-07
-4.65638e-08
1.32739e-08
7.47242e-07
-4.86709e-08
-1.53822e-15
7.62433e-07
-4.9637e-08
-1.32739e-08
7.62433e-07
-4.9637e-08
-2.49838e-08
7.47242e-07
-4.86709e-08
-3.3685e-08
7.15726e-07
-4.65638e-08
-3.78837e-08
6.65664e-07
-4.32533e-08
5.94908e-07
-3.75213e-08
-3.75213e-08
1.65286e-08
1.65286e-08
5.9284e-07
-1.54943e-08
-1.54943e-08
1.52339e-08
1.97898e-08
6.65549e-07
-1.83803e-08
1.16062e-08
2.21108e-08
7.17571e-07
-2.03279e-08
6.26752e-09
2.35799e-08
7.5063e-07
-2.16289e-08
1.14754e-16
2.42813e-08
7.66658e-07
-2.22387e-08
-6.26752e-09
2.42813e-08
7.66658e-07
-2.22387e-08
-1.16062e-08
2.35799e-08
7.5063e-07
-2.16289e-08
-1.52339e-08
2.21108e-08
7.17571e-07
-2.03279e-08
-1.65286e-08
1.97898e-08
6.65549e-07
-1.83803e-08
1.65286e-08
5.9284e-07
-1.54943e-08
-1.54943e-08
1.97898e-08
1.52339e-08
6.65549e-07
-1.83803e-08
1.82195e-08
1.82195e-08
7.31426e-07
1.38813e-08
2.03758e-08
7.75691e-07
7.48616e-09
2.17095e-08
8.03142e-07
1.27193e-15
2.23413e-08
8.16345e-07
-7.48616e-09
2.23413e-08
8.16345e-07
-1.38813e-08
2.17095e-08
8.03142e-07
-1.82195e-08
2.03758e-08
7.75691e-07
-1.97898e-08
1.82195e-08
7.31426e-07
1.52339e-08
6.65549e-07
-1.83803e-08
2.21108e-08
1.16062e-08
7.17571e-07
-2.03279e-08
2.03758e-08
1.38813e-08
7.75691e-07
1.55128e-08
1.55128e-08
8.13611e-07
8.35581e-09
1.65056e-08
8.37017e-07
1.19726e-15
1.69692e-08
8.48323e-07
-8.35581e-09
1.69692e-08
8.48323e-07
-1.55128e-08
1.65056e-08
8.37017e-07
-2.03758e-08
1.55128e-08
8.13611e-07
-2.21108e-08
1.38813e-08
7.75691e-07
1.16062e-08
7.17571e-07
-2.03279e-08
2.35799e-08
6.26752e-09
7.5063e-07
-2.16289e-08
2.17095e-08
7.48616e-09
8.03142e-07
1.65056e-08
8.35581e-09
8.37017e-07
8.8816e-09
8.8816e-09
8.58056e-07
7.14819e-16
9.12505e-09
8.68299e-07
-8.8816e-09
9.12505e-09
8.68299e-07
-1.65056e-08
8.8816e-09
8.58056e-07
-2.17095e-08
8.35581e-09
8.37017e-07
-2.35799e-08
7.48616e-09
8.03142e-07
6.26752e-09
7.5063e-07
-2.16289e-08
2.42813e-08
3.48829e-16
7.66658e-07
-2.22387e-08
2.23413e-08
1.77323e-15
8.16345e-07
1.69692e-08
1.60209e-15
8.48323e-07
9.12505e-09
1.2222e-15
8.68299e-07
6.95739e-16
1.05915e-15
8.78072e-07
-9.12505e-09
1.35236e-15
8.78072e-07
-1.69692e-08
1.11182e-15
8.68299e-07
-2.23413e-08
3.20801e-16
8.48323e-07
-2.42813e-08
-6.19902e-16
8.16345e-07
-9.83687e-16
7.66658e-07
-2.22387e-08
2.42813e-08
-6.26752e-09
7.66658e-07
-2.22387e-08
2.23413e-08
-7.48616e-09
8.16345e-07
1.69692e-08
-8.35581e-09
8.48323e-07
9.12505e-09
-8.8816e-09
8.68299e-07
9.93522e-16
-9.12505e-09
8.78072e-07
-9.12505e-09
-9.12505e-09
8.78072e-07
-1.69692e-08
-8.8816e-09
8.68299e-07
-2.23413e-08
-8.35581e-09
8.48323e-07
-2.42813e-08
-7.48616e-09
8.16345e-07
-6.26752e-09
7.66658e-07
-2.22387e-08
2.35799e-08
-1.16062e-08
7.5063e-07
-2.16289e-08
2.17095e-08
-1.38813e-08
8.03142e-07
1.65056e-08
-1.55128e-08
8.37017e-07
8.8816e-09
-1.65056e-08
8.58056e-07
7.43843e-16
-1.69692e-08
8.68299e-07
-8.8816e-09
-1.69692e-08
8.68299e-07
-1.65056e-08
-1.65056e-08
8.58056e-07
-2.17095e-08
-1.55128e-08
8.37017e-07
-2.35799e-08
-1.38813e-08
8.03142e-07
-1.16062e-08
7.5063e-07
-2.16289e-08
2.21108e-08
-1.52339e-08
7.17571e-07
-2.03279e-08
2.03758e-08
-1.82195e-08
7.75691e-07
1.55128e-08
-2.03758e-08
8.13611e-07
8.35581e-09
-2.17095e-08
8.37017e-07
-4.7889e-17
-2.23413e-08
8.48323e-07
-8.35581e-09
-2.23413e-08
8.48323e-07
-1.55128e-08
-2.17095e-08
8.37017e-07
-2.03758e-08
-2.03758e-08
8.13611e-07
-2.21108e-08
-1.82195e-08
7.75691e-07
-1.52339e-08
7.17571e-07
-2.03279e-08
1.97898e-08
-1.65286e-08
6.65549e-07
-1.83803e-08
1.82195e-08
-1.97898e-08
7.31426e-07
1.38813e-08
-2.21108e-08
7.75691e-07
7.48616e-09
-2.35799e-08
8.03142e-07
-8.78299e-16
-2.42813e-08
8.16345e-07
-7.48616e-09
-2.42813e-08
8.16345e-07
-1.38813e-08
-2.35799e-08
8.03142e-07
-1.82195e-08
-2.21108e-08
7.75691e-07
-1.97898e-08
-1.97898e-08
7.31426e-07
-1.65286e-08
6.65549e-07
-1.83803e-08
1.65286e-08
5.9284e-07
-1.54943e-08
-1.54943e-08
1.52339e-08
6.65549e-07
-1.83803e-08
1.16062e-08
7.17571e-07
-2.03279e-08
6.26752e-09
7.5063e-07
-2.16289e-08
-7.58849e-16
7.66658e-07
-2.22387e-08
-6.26752e-09
7.66658e-07
-2.22387e-08
-1.16062e-08
7.5063e-07
-2.16289e-08
-1.52339e-08
7.17571e-07
-2.03279e-08
-1.65286e-08
6.65549e-07
-1.83803e-08
5.9284e-07
-1.54943e-08
-1.54943e-08
5.85686e-09
5.85686e-09
5.91163e-07
-5.01853e-09
-5.01853e-09
5.76034e-09
7.60666e-09
6.64443e-07
-6.40425e-09
4.58175e-09
8.9512e-09
7.17221e-07
-7.42303e-09
2.53726e-09
9.85832e-09
7.50962e-07
-8.14592e-09
8.46739e-17
1.03039e-08
7.67385e-07
-8.49357e-09
-2.53726e-09
1.03039e-08
7.67385e-07
-8.49357e-09
-4.58175e-09
9.85832e-09
7.50962e-07
-8.14592e-09
-5.76034e-09
8.9512e-09
7.17221e-07
-7.42302e-09
-5.85686e-09
7.60666e-09
6.64443e-07
-6.40425e-09
5.85686e-09
5.91163e-07
-5.01853e-09
-5.01853e-09
7.60666e-09
5.76034e-09
6.64443e-07
-6.40425e-09
7.48761e-09
7.48762e-09
7.31664e-07
5.95209e-09
8.8228e-09
7.77355e-07
3.28754e-09
9.69758e-09
8.05967e-07
5.68098e-16
1.01245e-08
8.19812e-07
-3.28754e-09
1.01245e-08
8.19812e-07
-5.95209e-09
9.69758e-09
8.05967e-07
-7.48761e-09
8.8228e-09
7.77355e-07
-7.60666e-09
7.48761e-09
7.31664e-07
5.76034e-09
6.64443e-07
-6.40425e-09
8.9512e-09
4.58175e-09
7.17221e-07
-7.42303e-09
8.8228e-09
5.95209e-09
7.77355e-07
7.00202e-09
7.00202e-09
8.17253e-07
3.85807e-09
7.67611e-09
8.42183e-07
4.1018e-16
8.0008e-09
8.54305e-07
-3.85807e-09
8.0008e-09
8.54305e-07
-7.00202e-09
7.67611e-09
8.42183e-07
-8.8228e-09
7.00202e-09
8.17253e-07
-8.9512e-09
5.95209e-09
7.77355e-07
4.58175e-09
7.17221e-07
-7.42303e-09
9.85832e-09
2.53726e-09
7.50962e-07
-8.14592e-09
9.69758e-09
3.28754e-09
8.05967e-07
7.67611e-09
3.85807e-09
8.42183e-07
4.22105e-09
4.22105e-09
8.64966e-07
3.40582e-16
4.39452e-09
8.76126e-07
-4.22105e-09
4.39452e-09
8.76126e-07
-7.67611e-09
4.22105e-09
8.64966e-07
-9.69758e-09
3.85807e-09
8.42183e-07
-9.85832e-09
3.28754e-09
8.05967e-07
2.53726e-09
7.50962e-07
-8.14592e-09
1.03039e-08
3.03353e-16
7.67385e-07
-8.49357e-09
1.01245e-08
1.10482e-15
8.19812e-07
8.0008e-09
8.21036e-16
8.54305e-07
4.39452e-09
5.52592e-16
8.76126e-07
7.29096e-16
7.13995e-16
8.86861e-07
-4.39452e-09
1.29005e-15
8.86861e-07
-8.0008e-09
1.23581e-15
8.76126e-07
-1.01245e-08
7.07954e-16
8.54305e-07
-1.03039e-08
-1.35051e-16
8.19812e-07
-8.61241e-16
7.67385e-07
-8.49357e-09
1.03039e-08
-2.53726e-09
7.67385e-07
-8.49357e-09
1.01245e-08
-3.28754e-09
8.19812e-07
8.0008e-09
-3.85807e-09
8.54305e-07
4.39452e-09
-4.22105e-09
8.76126e-07
1.24496e-15
-4.39452e-09
8.86861e-07
-4.39452e-09
-4.39452e-09
8.86861e-07
-8.0008e-09
-4.22105e-09
8.76126e-07
-1.01245e-08
-3.85807e-09
8.54305e-07
-1.03039e-08
-3.28754e-09
8.19812e-07
-2.53726e-09
7.67385e-07
-8.49357e-09
9.85832e-09
-4.58175e-09
7.50962e-07
-8.14592e-09
9.69758e-09
-5.95209e-09
8.05967e-07
7.67611e-09
-7.00202e-09
8.42183e-07
4.22105e-09
-7.67611e-09
8.64966e-07
1.28239e-15
-8.0008e-09
8.76126e-07
-4.22105e-09
-8.0008e-09
8.76126e-07
-7.67611e-09
-7.67611e-09
8.64966e-07
-9.69758e-09
-7.00202e-09
8.42183e-07
-9.85832e-09
-5.95209e-09
8.05967e-07
-4.58175e-09
7.50962e-07
-8.14592e-09
8.9512e-09
-5.76034e-09
7.17221e-07
-7.42303e-09
8.8228e-09
-7.48761e-09
7.77355e-07
7.00202e-09
-8.8228e-09
8.17253e-07
3.85807e-09
-9.69758e-09
8.42183e-07
7.22134e-16
-1.01245e-08
8.54305e-07
-3.85807e-09
-1.01245e-08
8.54305e-07
-7.00202e-09
-9.69758e-09
8.42183e-07
-8.8228e-09
-8.8228e-09
8.17253e-07
-8.9512e-09
-7.48762e-09
7.77355e-07
-5.76034e-09
7.17221e-07
-7.42303e-09
7.60666e-09
-5.85686e-09
6.64443e-07
-6.40425e-09
7.48761e-09
-7.60666e-09
7.31664e-07
5.95209e-09
-8.9512e-09
7.77355e-07
3.28754e-09
-9.85832e-09
8.05967e-07
-7.43666e-17
-1.03039e-08
8.19812e-07
-3.28754e-09
-1.03039e-08
8.19812e-07
-5.95209e-09
-9.85832e-09
8.05967e-07
-7.48761e-09
-8.9512e-09
7.77355e-07
-7.60666e-09
-7.60666e-09
7.31664e-07
-5.85686e-09
6.64443e-07
-6.40425e-09
5.85686e-09
5.91163e-07
-5.01853e-09
-5.01853e-09
5.76034e-09
6.64443e-07
-6.40425e-09
4.58175e-09
7.17221e-07
-7.42302e-09
2.53726e-09
7.50962e-07
-8.14592e-09
-5.20885e-16
7.67385e-07
-8.49357e-09
-2.53726e-09
7.67385e-07
-8.49357e-09
-4.58175e-09
7.50962e-07
-8.14592e-09
-5.76034e-09
7.17221e-07
-7.42303e-09
-5.85686e-09
6.64443e-07
-6.40425e-09
5.91163e-07
-5.01853e-09
-5.01853e-09
1.67156e-09
1.67156e-09
5.90354e-07
-1.26717e-09
-1.26717e-09
1.78696e-09
2.4204e-09
6.63706e-07
-1.7993e-09
1.49543e-09
3.03969e-09
7.16691e-07
-2.21773e-09
8.52516e-10
3.48404e-09
7.50659e-07
-2.53811e-09
1.24572e-16
3.7077e-09
7.67225e-07
-2.69503e-09
-8.52516e-10
3.7077e-09
7.67225e-07
-2.69503e-09
-1.49543e-09
3.48404e-09
7.50659e-07
-2.53811e-09
-1.78696e-09
3.03969e-09
7.16691e-07
-2.21773e-09
-1.67156e-09
2.4204e-09
6.63706e-07
-1.7993e-09
1.67156e-09
5.90354e-07
-1.26717e-09
-1.26717e-09
2.4204e-09
1.78696e-09
6.63706e-07
-1.7993e-09
2.57993e-09
2.57993e-09
7.31345e-07
2.15205e-09
3.23754e-09
7.77585e-07
1.22054e-09
3.69313e-09
8.06689e-07
5.14069e-16
3.92147e-09
8.20819e-07
-1.22054e-09
3.92147e-09
8.20819e-07
-2.15205e-09
3.69313e-09
8.06689e-07
-2.57993e-09
3.23754e-09
7.77585e-07
-2.4204e-09
2.57992e-09
7.31345e-07
1.78695e-09
6.63706e-07
-1.7993e-09
3.03969e-09
1.49543e-09
7.16691e-07
-2.21773e-09
3.23754e-09
2.15205e-09
7.77585e-07
2.68985e-09
2.68985e-09
8.18348e-07
1.51891e-09
3.05399e-09
8.43993e-07
6.48992e-16
3.23452e-09
8.56511e-07
-1.51891e-09
3.23452e-09
8.56511e-07
-2.68985e-09
3.05399e-09
8.43993e-07
-3.23754e-09
2.68985e-09
8.18348e-07
-3.03969e-09
2.15204e-09
7.77585e-07
1.49543e-09
7.16691e-07
-2.21773e-09
3.48404e-09
8.52516e-10
7.50659e-07
-2.53811e-09
3.69313e-09
1.22054e-09
8.06689e-07
3.05399e-09
1.51891e-09
8.43993e-07
1.7188e-09
1.7188e-09
8.67636e-07
6.93545e-16
1.81724e-09
8.79262e-07
-1.7188e-09
1.81724e-09
8.79262e-07
-3.05399e-09
1.7188e-09
8.67636e-07
-3.69312e-09
1.51891e-09
8.43993e-07
-3.48404e-09
1.22054e-09
8.06689e-07
8.52516e-10
7.50659e-07
-2.53811e-09
3.7077e-09
8.59125e-17
7.67225e-07
-2.69503e-09
3.92147e-09
6.98887e-16
8.20819e-07
3.23452e-09
1.034e-15
8.56511e-07
1.81724e-09
1.01503e-15
8.79262e-07
8.19145e-16
9.31668e-16
8.90495e-07
-1.81724e-09
8.68923e-16
8.90495e-07
-3.23452e-09
5.92415e-16
8.79262e-07
-3.92147e-09
3.76067e-16
8.56511e-07
-3.7077e-09
1.27662e-16
8.20819e-07
-1.21589e-17
7.67225e-07
-2.69503e-09
3.7077e-09
-8.52516e-10
7.67225e-07
-2.69503e-09
3.92147e-09
-1.22054e-09
8.20819e-07
3.23452e-09
-1.51891e-09
8.56511e-07
1.81724e-09
-1.7188e-09
8.79262e-07
6.71762e-16
-1.81724e-09
8.90495e-07
-1.81724e-09
-1.81724e-09
8.90495e-07
-3.23452e-09
-1.7188e-09
8.79262e-07
-3.92147e-09
-1.51891e-09
8.56511e-07
-3.7077e-09
-1.22054e-09
8.20819e-07
-8.52515e-10
7.67225e-07
-2.69503e-09
3.48404e-09
-1.49543e-09
7.50659e-07
-2.53811e-09
3.69313e-09
-2.15204e-09
8.06689e-07
3.05399e-09
-2.68984e-09
8.43993e-07
1.7188e-09
-3.05399e-09
8.67636e-07
5.53797e-16
-3.23452e-09
8.79262e-07
-1.7188e-09
-3.23452e-09
8.79262e-07
-3.05399e-09
-3.05399e-09
8.67636e-07
-3.69312e-09
-2.68985e-09
8.43993e-07
-3.48404e-09
-2.15204e-09
8.06689e-07
-1.49543e-09
7.50659e-07
-2.53811e-09
3.03969e-09
-1.78696e-09
7.16691e-07
-2.21773e-09
3.23754e-09
-2.57993e-09
7.77585e-07
2.68985e-09
-3.23754e-09
8.18348e-07
1.51891e-09
-3.69312e-09
8.43993e-07
3.28917e-16
-3.92147e-09
8.56511e-07
-1.51891e-09
-3.92147e-09
8.56511e-07
-2.68985e-09
-3.69312e-09
8.43993e-07
-3.23754e-09
-3.23754e-09
8.18348e-07
-3.03969e-09
-2.57993e-09
7.77585e-07
-1.78695e-09
7.16691e-07
-2.21773e-09
2.4204e-09
-1.67156e-09
6.63706e-07
-1.7993e-09
2.57992e-09
-2.4204e-09
7.31345e-07
2.15204e-09
-3.03969e-09
7.77585e-07
1.22054e-09
-3.48404e-09
8.06689e-07
-5.55415e-17
-3.7077e-09
8.20819e-07
-1.22054e-09
-3.7077e-09
8.20819e-07
-2.15204e-09
-3.48404e-09
8.06689e-07
-2.57993e-09
-3.03969e-09
7.77585e-07
-2.4204e-09
-2.4204e-09
7.31345e-07
-1.67156e-09
6.63706e-07
-1.7993e-09
1.67156e-09
5.90354e-07
-1.26717e-09
-1.26717e-09
1.78695e-09
6.63706e-07
-1.7993e-09
1.49543e-09
7.16691e-07
-2.21773e-09
8.52516e-10
7.50659e-07
-2.53811e-09
-2.7518e-16
7.67225e-07
-2.69503e-09
-8.52516e-10
7.67225e-07
-2.69503e-09
-1.49543e-09
7.50659e-07
-2.53811e-09
-1.78696e-09
7.16691e-07
-2.21773e-09
-1.67156e-09
6.63706e-07
-1.7993e-09
5.90354e-07
-1.26717e-09
-1.26717e-09
3.96747e-10
3.96747e-10
5.90032e-07
-2.35602e-10
-2.35602e-10
4.79313e-10
6.69131e-10
6.63366e-07
-4.11649e-10
4.28761e-10
9.07442e-10
7.16394e-07
-5.59804e-10
2.53129e-10
1.08695e-09
7.50426e-07
-6.78615e-10
-5.25051e-17
1.17876e-09
7.67036e-07
-7.3744e-10
-2.53129e-10
1.17876e-09
7.67036e-07
-7.3744e-10
-4.28761e-10
1.08695e-09
7.50426e-07
-6.78615e-10
-4.79314e-10
9.07442e-10
7.16394e-07
-5.59804e-10
-3.96748e-10
6.69132e-10
6.63366e-07
-4.11649e-10
3.96747e-10
5.90032e-07
-2.35602e-10
-2.35603e-10
6.69131e-10
4.79313e-10
6.63366e-07
-4.11649e-10
7.85764e-10
7.85764e-10
7.31112e-07
6.90871e-10
1.05335e-09
7.77534e-07
4.02765e-10
1.24713e-09
8.06817e-07
-7.0983e-18
1.34614e-09
8.21054e-07
-4.02765e-10
1.34614e-09
8.21054e-07
-6.90871e-10
1.24713e-09
8.06817e-07
-7.85765e-10
1.05335e-09
7.77534e-07
-6.69132e-10
7.85765e-10
7.31112e-07
4.79313e-10
6.63366e-07
-4.11649e-10
9.07441e-10
4.2876e-10
7.16394e-07
-5.59803e-10
1.05335e-09
6.90871e-10
7.77534e-07
9.17131e-10
9.17132e-10
8.1862e-07
5.30558e-10
1.07707e-09
8.44549e-07
1.0972e-16
1.15804e-09
8.5723e-07
-5.30558e-10
1.15804e-09
8.5723e-07
-9.17131e-10
1.07707e-09
8.44549e-07
-1.05335e-09
9.17132e-10
8.1862e-07
-9.07441e-10
6.90871e-10
7.77534e-07
4.2876e-10
7.16394e-07
-5.59803e-10
1.08695e-09
2.53129e-10
7.50426e-07
-6.78615e-10
1.24713e-09
4.02766e-10
8.06817e-07
1.07707e-09
5.30559e-10
8.44549e-07
6.19906e-10
6.19906e-10
8.68551e-07
2.83402e-16
6.64899e-10
8.80375e-07
-6.19906e-10
6.64899e-10
8.80375e-07
-1.07706e-09
6.19907e-10
8.68551e-07