/*--------------------------------*- C++ -*----------------------------------*\
| =========                 |                                                 |
| \\      /  F ield         | OpenFOAM: The Open Source CFD Toolbox           |
|  \\    /   O peration     | Version:  2412                                  |
|   \\  /    A nd           | Website:  www.openfoam.com                      |
|    \\/     M anipulation  |                                                 |
\*---------------------------------------------------------------------------*/
FoamFile
{
    version     2.0;
    format      ascii;
    arch        "LSB;label=32;scalar=64";
    class       volVectorField;
    location    "4";
    object      U;
}
// * * * * * * * * * * * * * * * * * * * * * * * * * * * * * * * * * * * * * //

dimensions      [0 1 -1 0 0 0 0];

internalField   nonuniform List<vector> 
15000
(
(0.228907 0.228907 1.09642)
(0.185942 0.242203 1.11728)
(0.134987 0.248633 1.12521)
(0.0815406 0.251801 1.12745)
(0.0272525 0.25306 1.12771)
(-0.0272525 0.25306 1.12771)
(-0.0815406 0.251801 1.12745)
(-0.134987 0.248633 1.12521)
(-0.185942 0.242203 1.11728)
(-0.228907 0.228907 1.09642)
(0.242203 0.185942 1.11728)
(0.191435 0.191435 1.13034)
(0.135769 0.193538 1.13005)
(0.0807933 0.194086 1.12631)
(0.0268006 0.194068 1.12356)
(-0.0268006 0.194068 1.12356)
(-0.0807933 0.194086 1.12631)
(-0.135769 0.193538 1.13005)
(-0.191435 0.191435 1.13034)
(-0.242203 0.185942 1.11728)
(0.248633 0.134987 1.12521)
(0.193538 0.135769 1.13005)
(0.135542 0.135542 1.1239)
(0.0798357 0.13488 1.11643)
(0.0263313 0.134349 1.11191)
(-0.0263313 0.134349 1.11191)
(-0.0798357 0.13488 1.11643)
(-0.135542 0.135542 1.1239)
(-0.193538 0.135769 1.13005)
(-0.248633 0.134987 1.12521)
(0.251801 0.0815406 1.12745)
(0.194086 0.0807933 1.12631)
(0.13488 0.0798357 1.11643)
(0.0789166 0.0789166 1.10682)
(0.0259287 0.0783471 1.10132)
(-0.0259287 0.0783471 1.10132)
(-0.0789166 0.0789166 1.10682)
(-0.13488 0.0798357 1.11643)
(-0.194086 0.0807933 1.12631)
(-0.251801 0.0815406 1.12745)
(0.25306 0.0272525 1.12771)
(0.194068 0.0268006 1.12356)
(0.134349 0.0263313 1.11191)
(0.0783471 0.0259287 1.10132)
(0.0256933 0.0256933 1.09541)
(-0.0256933 0.0256933 1.09541)
(-0.0783471 0.0259287 1.10132)
(-0.134349 0.0263313 1.11191)
(-0.194068 0.0268006 1.12356)
(-0.25306 0.0272525 1.12771)
(0.25306 -0.0272525 1.12771)
(0.194068 -0.0268006 1.12356)
(0.134349 -0.0263313 1.11191)
(0.0783471 -0.0259287 1.10132)
(0.0256933 -0.0256933 1.09541)
(-0.0256933 -0.0256933 1.09541)
(-0.0783471 -0.0259287 1.10132)
(-0.134349 -0.0263313 1.11191)
(-0.194068 -0.0268006 1.12356)
(-0.25306 -0.0272525 1.12771)
(0.251801 -0.0815406 1.12745)
(0.194086 -0.0807933 1.12631)
(0.13488 -0.0798357 1.11643)
(0.0789166 -0.0789166 1.10682)
(0.0259287 -0.0783471 1.10132)
(-0.0259287 -0.0783471 1.10132)
(-0.0789166 -0.0789166 1.10682)
(-0.13488 -0.0798357 1.11643)
(-0.194086 -0.0807933 1.12631)
(-0.251801 -0.0815406 1.12745)
(0.248633 -0.134987 1.12521)
(0.193538 -0.135769 1.13005)
(0.135542 -0.135542 1.1239)
(0.0798357 -0.13488 1.11643)
(0.0263313 -0.134349 1.11191)
(-0.0263313 -0.134349 1.11191)
(-0.0798357 -0.13488 1.11643)
(-0.135542 -0.135542 1.1239)
(-0.193538 -0.135769 1.13005)
(-0.248633 -0.134987 1.12521)
(0.242203 -0.185942 1.11728)
(0.191435 -0.191435 1.13034)
(0.135769 -0.193538 1.13005)
(0.0807933 -0.194086 1.12631)
(0.0268006 -0.194068 1.12356)
(-0.0268006 -0.194068 1.12356)
(-0.0807933 -0.194086 1.12631)
(-0.135769 -0.193538 1.13005)
(-0.191435 -0.191435 1.13034)
(-0.242203 -0.185942 1.11728)
(0.228907 -0.228907 1.09642)
(0.185942 -0.242203 1.11728)
(0.134987 -0.248633 1.12521)
(0.0815406 -0.251801 1.12745)
(0.0272525 -0.25306 1.12771)
(-0.0272525 -0.25306 1.12771)
(-0.0815406 -0.251801 1.12745)
(-0.134987 -0.248633 1.12521)
(-0.185942 -0.242203 1.11728)
(-0.228907 -0.228907 1.09642)
(0.119433 0.119433 1.27601)
(0.105305 0.142195 1.33638)
(0.0822748 0.160323 1.37029)
(0.0523248 0.17285 1.3878)
(0.0179349 0.179205 1.39498)
(-0.0179349 0.179205 1.39498)
(-0.0523248 0.17285 1.3878)
(-0.0822748 0.160323 1.37029)
(-0.105305 0.142195 1.33638)
(-0.119433 0.119433 1.27601)
(0.142195 0.105305 1.33638)
(0.125602 0.125602 1.3917)
(0.0974159 0.141608 1.41407)
(0.0614424 0.152425 1.4211)
(0.0209592 0.157837 1.42242)
(-0.0209592 0.157837 1.42242)
(-0.0614424 0.152425 1.4211)
(-0.0974159 0.141608 1.41407)
(-0.125602 0.125602 1.3917)
(-0.142195 0.105305 1.33638)
(0.160323 0.0822748 1.37029)
(0.141608 0.0974159 1.41407)
(0.109224 0.109224 1.42562)
(0.0684584 0.117081 1.42434)
(0.023269 0.120977 1.42122)
(-0.023269 0.120977 1.42122)
(-0.0684584 0.117081 1.42434)
(-0.109224 0.109224 1.42562)
(-0.141608 0.0974159 1.41407)
(-0.160323 0.0822748 1.37029)
(0.17285 0.0523248 1.3878)
(0.152425 0.0614424 1.4211)
(0.117081 0.0684584 1.42434)
(0.0730789 0.0730789 1.41725)
(0.0247827 0.0753577 1.41115)
(-0.0247827 0.0753577 1.41115)
(-0.0730789 0.0730789 1.41725)
(-0.117081 0.0684584 1.42434)
(-0.152425 0.0614424 1.4211)
(-0.17285 0.0523248 1.3878)
(0.179205 0.0179349 1.39498)
(0.157837 0.0209592 1.42242)
(0.120977 0.023269 1.42122)
(0.0753577 0.0247827 1.41115)
(0.0255273 0.0255273 1.40355)
(-0.0255273 0.0255273 1.40355)
(-0.0753577 0.0247827 1.41115)
(-0.120977 0.023269 1.42122)
(-0.157837 0.0209592 1.42242)
(-0.179205 0.0179349 1.39498)
(0.179205 -0.0179349 1.39498)
(0.157837 -0.0209592 1.42242)
(0.120977 -0.023269 1.42122)
(0.0753577 -0.0247827 1.41115)
(0.0255273 -0.0255273 1.40355)
(-0.0255273 -0.0255273 1.40355)
(-0.0753577 -0.0247827 1.41115)
(-0.120977 -0.023269 1.42122)
(-0.157837 -0.0209592 1.42242)
(-0.179205 -0.0179349 1.39498)
(0.17285 -0.0523248 1.3878)
(0.152425 -0.0614424 1.4211)
(0.117081 -0.0684584 1.42434)
(0.0730789 -0.0730789 1.41725)
(0.0247827 -0.0753577 1.41115)
(-0.0247827 -0.0753577 1.41115)
(-0.0730789 -0.0730789 1.41725)
(-0.117081 -0.0684584 1.42434)
(-0.152425 -0.0614424 1.4211)
(-0.17285 -0.0523248 1.3878)
(0.160323 -0.0822748 1.37029)
(0.141608 -0.0974159 1.41407)
(0.109224 -0.109224 1.42562)
(0.0684584 -0.117081 1.42434)
(0.023269 -0.120977 1.42122)
(-0.023269 -0.120977 1.42122)
(-0.0684584 -0.117081 1.42434)
(-0.109224 -0.109224 1.42562)
(-0.141608 -0.0974159 1.41407)
(-0.160323 -0.0822748 1.37029)
(0.142195 -0.105305 1.33638)
(0.125602 -0.125602 1.3917)
(0.0974159 -0.141608 1.41407)
(0.0614424 -0.152425 1.4211)
(0.0209592 -0.157837 1.42242)
(-0.0209592 -0.157837 1.42242)
(-0.0614424 -0.152425 1.4211)
(-0.0974159 -0.141608 1.41407)
(-0.125602 -0.125602 1.3917)
(-0.142195 -0.105305 1.33638)
(0.119433 -0.119433 1.27601)
(0.105305 -0.142195 1.33638)
(0.0822748 -0.160323 1.37029)
(0.0523248 -0.17285 1.3878)
(0.0179349 -0.179205 1.39498)
(-0.0179349 -0.179205 1.39498)
(-0.0523248 -0.17285 1.3878)
(-0.0822748 -0.160323 1.37029)
(-0.105305 -0.142195 1.33638)
(-0.119433 -0.119433 1.27601)
(0.0691678 0.0691678 1.1775)
(0.0663285 0.0860612 1.28498)
(0.0542915 0.100121 1.35876)
(0.0355724 0.110451 1.40443)
(0.0123761 0.115907 1.42606)
(-0.0123761 0.115907 1.42606)
(-0.0355724 0.110451 1.40443)
(-0.0542915 0.100121 1.35876)
(-0.0663285 0.0860612 1.28498)
(-0.0691678 0.0691678 1.1775)
(0.0860612 0.0663285 1.28498)
(0.0829902 0.0829902 1.40363)
(0.0680489 0.0969392 1.47467)
(0.0444957 0.107019 1.51405)
(0.01545 0.112284 1.5314)
(-0.01545 0.112284 1.5314)
(-0.0444957 0.107019 1.51405)
(-0.0680489 0.0969392 1.47467)
(-0.0829902 0.0829902 1.40363)
(-0.0860612 0.0663285 1.28498)
(0.100121 0.0542915 1.35876)
(0.0969392 0.0680489 1.47467)
(0.079551 0.079551 1.53953)
(0.0519013 0.0877176 1.57249)
(0.0179916 0.0919409 1.58593)
(-0.0179916 0.0919409 1.58593)
(-0.0519013 0.0877176 1.57249)
(-0.079551 0.079551 1.53953)
(-0.0969392 0.0680489 1.47467)
(-0.100121 0.0542915 1.35876)
(0.110451 0.0355724 1.40443)
(0.107019 0.0444957 1.51405)
(0.0877176 0.0519013 1.57249)
(0.0571038 0.0571038 1.60012)
(0.0197696 0.0597793 1.61056)
(-0.0197696 0.0597793 1.61056)
(-0.0571038 0.0571038 1.60012)
(-0.0877176 0.0519013 1.57249)
(-0.107019 0.0444957 1.51405)
(-0.110451 0.0355724 1.40443)
(0.115907 0.0123761 1.42606)
(0.112284 0.01545 1.5314)
(0.0919409 0.0179916 1.58593)
(0.0597793 0.0197696 1.61056)
(0.0206819 0.0206819 1.61936)
(-0.0206819 0.0206819 1.61936)
(-0.0597793 0.0197696 1.61056)
(-0.0919409 0.0179916 1.58593)
(-0.112284 0.01545 1.5314)
(-0.115907 0.0123761 1.42606)
(0.115907 -0.0123761 1.42606)
(0.112284 -0.01545 1.5314)
(0.0919409 -0.0179916 1.58593)
(0.0597793 -0.0197696 1.61056)
(0.0206819 -0.0206819 1.61936)
(-0.0206819 -0.0206819 1.61936)
(-0.0597793 -0.0197696 1.61056)
(-0.0919409 -0.0179916 1.58593)
(-0.112284 -0.01545 1.5314)
(-0.115907 -0.0123761 1.42606)
(0.110451 -0.0355724 1.40443)
(0.107019 -0.0444957 1.51405)
(0.0877176 -0.0519013 1.57249)
(0.0571038 -0.0571038 1.60012)
(0.0197696 -0.0597793 1.61056)
(-0.0197696 -0.0597793 1.61056)
(-0.0571038 -0.0571038 1.60012)
(-0.0877176 -0.0519013 1.57249)
(-0.107019 -0.0444957 1.51405)
(-0.110451 -0.0355724 1.40443)
(0.100121 -0.0542915 1.35876)
(0.0969392 -0.0680489 1.47467)
(0.079551 -0.079551 1.53953)
(0.0519013 -0.0877176 1.57249)
(0.0179916 -0.0919409 1.58593)
(-0.0179916 -0.0919409 1.58593)
(-0.0519013 -0.0877176 1.57249)
(-0.079551 -0.079551 1.53953)
(-0.0969392 -0.0680489 1.47467)
(-0.100121 -0.0542915 1.35876)
(0.0860612 -0.0663285 1.28498)
(0.0829902 -0.0829902 1.40363)
(0.0680489 -0.0969392 1.47467)
(0.0444957 -0.107019 1.51405)
(0.01545 -0.112284 1.5314)
(-0.01545 -0.112284 1.5314)
(-0.0444957 -0.107019 1.51405)
(-0.0680489 -0.0969392 1.47467)
(-0.0829902 -0.0829902 1.40363)
(-0.0860612 -0.0663285 1.28498)
(0.0691678 -0.0691678 1.1775)
(0.0663285 -0.0860612 1.28498)
(0.0542915 -0.100121 1.35876)
(0.0355724 -0.110451 1.40443)
(0.0123761 -0.115907 1.42606)
(-0.0123761 -0.115907 1.42606)
(-0.0355724 -0.110451 1.40443)
(-0.0542915 -0.100121 1.35876)
(-0.0663285 -0.0860612 1.28498)
(-0.0691678 -0.0691678 1.1775)
(0.0332516 0.0332516 1.16091)
(0.0331316 0.0433267 1.28641)
(0.0280844 0.052317 1.37799)
(0.0188541 0.0591906 1.43758)
(0.00663982 0.0629071 1.46676)
(-0.00663982 0.0629071 1.46676)
(-0.0188541 0.0591906 1.43758)
(-0.0280844 0.052317 1.37799)
(-0.0331316 0.0433267 1.28641)
(-0.0332516 0.0332516 1.16091)
(0.0433267 0.0331316 1.28641)
(0.0439778 0.0439778 1.43448)
(0.0376122 0.0536891 1.53212)
(0.0252891 0.0610167 1.5912)
(0.00890236 0.0649471 1.61892)
(-0.00890236 0.0649471 1.61892)
(-0.0252891 0.0610167 1.5912)
(-0.0376122 0.0536891 1.53212)
(-0.0439778 0.0439778 1.43448)
(-0.0433267 0.0331316 1.28641)
(0.052317 0.0280844 1.37799)
(0.0536891 0.0376122 1.53212)
(0.0461137 0.0461137 1.63022)
(0.0310001 0.0524368 1.68711)
(0.010906 0.0558025 1.71295)
(-0.010906 0.0558025 1.71295)
(-0.0310001 0.0524368 1.68711)
(-0.0461137 0.0461137 1.63022)
(-0.0536891 0.0376122 1.53212)
(-0.052317 0.0280844 1.37799)
(0.0591906 0.0188541 1.43758)
(0.0610167 0.0252891 1.5912)
(0.0524368 0.0310001 1.68711)
(0.0352135 0.0352135 1.74128)
(0.0123798 0.0374466 1.76533)
(-0.0123798 0.0374466 1.76533)
(-0.0352135 0.0352135 1.74128)
(-0.0524368 0.0310001 1.68711)
(-0.0610167 0.0252891 1.5912)
(-0.0591906 0.0188541 1.43758)
(0.0629071 0.00663982 1.46676)
(0.0649471 0.00890236 1.61892)
(0.0558025 0.010906 1.71295)
(0.0374466 0.0123798 1.76533)
(0.0131595 0.0131595 1.78829)
(-0.0131595 0.0131595 1.78829)
(-0.0374466 0.0123798 1.76533)
(-0.0558025 0.010906 1.71295)
(-0.0649471 0.00890236 1.61892)
(-0.0629071 0.00663982 1.46676)
(0.0629071 -0.00663982 1.46676)
(0.0649471 -0.00890236 1.61892)
(0.0558025 -0.010906 1.71295)
(0.0374466 -0.0123798 1.76533)
(0.0131595 -0.0131595 1.78829)
(-0.0131595 -0.0131595 1.78829)
(-0.0374466 -0.0123798 1.76533)
(-0.0558025 -0.010906 1.71295)
(-0.0649471 -0.00890236 1.61892)
(-0.0629071 -0.00663982 1.46676)
(0.0591906 -0.0188541 1.43758)
(0.0610167 -0.0252891 1.5912)
(0.0524368 -0.0310001 1.68711)
(0.0352135 -0.0352135 1.74128)
(0.0123798 -0.0374466 1.76533)
(-0.0123798 -0.0374466 1.76533)
(-0.0352135 -0.0352135 1.74128)
(-0.0524368 -0.0310001 1.68711)
(-0.0610167 -0.0252891 1.5912)
(-0.0591906 -0.0188541 1.43758)
(0.052317 -0.0280844 1.37799)
(0.0536891 -0.0376122 1.53212)
(0.0461137 -0.0461137 1.63022)
(0.0310001 -0.0524368 1.68711)
(0.010906 -0.0558025 1.71295)
(-0.010906 -0.0558025 1.71295)
(-0.0310001 -0.0524368 1.68711)
(-0.0461137 -0.0461137 1.63022)
(-0.0536891 -0.0376122 1.53212)
(-0.052317 -0.0280844 1.37799)
(0.0433267 -0.0331316 1.28641)
(0.0439778 -0.0439778 1.43448)
(0.0376122 -0.0536891 1.53212)
(0.0252891 -0.0610167 1.5912)
(0.00890236 -0.0649471 1.61892)
(-0.00890236 -0.0649471 1.61892)
(-0.0252891 -0.0610167 1.5912)
(-0.0376122 -0.0536891 1.53212)
(-0.0439778 -0.0439778 1.43448)
(-0.0433267 -0.0331316 1.28641)
(0.0332516 -0.0332516 1.16091)
(0.0331316 -0.0433267 1.28641)
(0.0280844 -0.052317 1.37799)
(0.0188541 -0.0591906 1.43758)
(0.00663982 -0.0629071 1.46676)
(-0.00663982 -0.0629071 1.46676)
(-0.0188541 -0.0591906 1.43758)
(-0.0280844 -0.052317 1.37799)
(-0.0331316 -0.0433267 1.28641)
(-0.0332516 -0.0332516 1.16091)
(0.0175934 0.0175934 1.1293)
(0.0181395 0.0231494 1.26458)
(0.0156937 0.0282379 1.36677)
(0.0106825 0.0322345 1.43514)
(0.00378898 0.0344323 1.46924)
(-0.00378898 0.0344323 1.46924)
(-0.0106825 0.0322345 1.43514)
(-0.0156937 0.0282379 1.36677)
(-0.0181395 0.0231494 1.26458)
(-0.0175934 0.0175934 1.1293)
(0.0231494 0.0181395 1.26458)
(0.0243795 0.0243795 1.42938)
(0.0213914 0.0301743 1.54374)
(0.0146363 0.0346861 1.61603)
(0.00519827 0.0371533 1.651)
(-0.00519827 0.0371533 1.651)
(-0.0146363 0.0346861 1.61603)
(-0.0213914 0.0301743 1.54374)
(-0.0243795 0.0243795 1.42938)
(-0.0231494 0.0181395 1.26458)
(0.0282379 0.0156937 1.36677)
(0.0301743 0.0213914 1.54374)
(0.0266956 0.0266956 1.66384)
(0.0183097 0.0307757 1.73774)
(0.00650695 0.0329925 1.77278)
(-0.00650695 0.0329925 1.77278)
(-0.0183097 0.0307757 1.73774)
(-0.0266956 0.0266956 1.66384)
(-0.0301743 0.0213914 1.54374)
(-0.0282379 0.0156937 1.36677)
(0.0322345 0.0106825 1.43514)
(0.0346861 0.0146363 1.61603)
(0.0307757 0.0183097 1.73774)
(0.0211171 0.0211171 1.81159)
(0.0075049 0.0226371 1.84619)
(-0.0075049 0.0226371 1.84619)
(-0.0211171 0.0211171 1.81159)
(-0.0307757 0.0183097 1.73774)
(-0.0346861 0.0146363 1.61603)
(-0.0322345 0.0106825 1.43514)
(0.0344323 0.00378898 1.46924)
(0.0371533 0.00519827 1.651)
(0.0329925 0.00650695 1.77278)
(0.0226371 0.0075049 1.84619)
(0.0080445 0.0080445 1.8804)
(-0.0080445 0.0080445 1.8804)
(-0.0226371 0.0075049 1.84619)
(-0.0329925 0.00650695 1.77278)
(-0.0371533 0.00519827 1.651)
(-0.0344323 0.00378898 1.46924)
(0.0344323 -0.00378898 1.46924)
(0.0371533 -0.00519827 1.651)
(0.0329925 -0.00650695 1.77278)
(0.0226371 -0.0075049 1.84619)
(0.0080445 -0.0080445 1.8804)
(-0.0080445 -0.0080445 1.8804)
(-0.0226371 -0.0075049 1.84619)
(-0.0329925 -0.00650695 1.77278)
(-0.0371533 -0.00519827 1.651)
(-0.0344323 -0.00378898 1.46924)
(0.0322345 -0.0106825 1.43514)
(0.0346861 -0.0146363 1.61603)
(0.0307757 -0.0183097 1.73774)
(0.0211171 -0.0211171 1.81159)
(0.0075049 -0.0226371 1.84619)
(-0.0075049 -0.0226371 1.84619)
(-0.0211171 -0.0211171 1.81159)
(-0.0307757 -0.0183097 1.73774)
(-0.0346861 -0.0146363 1.61603)
(-0.0322345 -0.0106825 1.43514)
(0.0282379 -0.0156937 1.36677)
(0.0301743 -0.0213914 1.54374)
(0.0266956 -0.0266956 1.66384)
(0.0183097 -0.0307757 1.73774)
(0.00650695 -0.0329925 1.77278)
(-0.00650695 -0.0329925 1.77278)
(-0.0183097 -0.0307757 1.73774)
(-0.0266956 -0.0266956 1.66384)
(-0.0301743 -0.0213914 1.54374)
(-0.0282379 -0.0156937 1.36677)
(0.0231494 -0.0181395 1.26458)
(0.0243795 -0.0243795 1.42938)
(0.0213914 -0.0301743 1.54374)
(0.0146363 -0.0346861 1.61603)
(0.00519827 -0.0371533 1.651)
(-0.00519827 -0.0371533 1.651)
(-0.0146363 -0.0346861 1.61603)
(-0.0213914 -0.0301743 1.54374)
(-0.0243795 -0.0243795 1.42938)
(-0.0231494 -0.0181395 1.26458)
(0.0175934 -0.0175934 1.1293)
(0.0181395 -0.0231494 1.26458)
(0.0156937 -0.0282379 1.36677)
(0.0106825 -0.0322345 1.43514)
(0.00378898 -0.0344323 1.46924)
(-0.00378898 -0.0344323 1.46924)
(-0.0106825 -0.0322345 1.43514)
(-0.0156937 -0.0282379 1.36677)
(-0.0181395 -0.0231494 1.26458)
(-0.0175934 -0.0175934 1.1293)
(0.00911973 0.00911973 1.11711)
(0.00954265 0.0121596 1.25663)
(0.00838316 0.0150161 1.36387)
(0.00577077 0.0172965 1.43664)
(0.00205882 0.0185633 1.4733)
(-0.00205882 0.0185633 1.4733)
(-0.00577077 0.0172965 1.43664)
(-0.00838316 0.0150161 1.36387)
(-0.00954265 0.0121596 1.25663)
(-0.00911973 0.00911973 1.11711)
(0.0121596 0.00954265 1.25663)
(0.0130698 0.0130698 1.42944)
(0.0116856 0.0164393 1.5525)
(0.0081029 0.0191161 1.63208)
(0.0028977 0.0205983 1.67117)
(-0.0028977 0.0205983 1.67117)
(-0.0081029 0.0191161 1.63208)
(-0.0116856 0.0164393 1.5525)
(-0.0130698 0.0130698 1.42944)
(-0.0121596 0.00954265 1.25663)
(0.0150161 0.00838316 1.36387)
(0.0164393 0.0116856 1.5525)
(0.0148558 0.0148558 1.6848)
(0.0103427 0.0173519 1.76869)
(0.00370399 0.018728 1.80931)
(-0.00370399 0.018728 1.80931)
(-0.0103427 0.0173519 1.76869)
(-0.0148558 0.0148558 1.6848)
(-0.0164393 0.0116856 1.5525)
(-0.0150161 0.00838316 1.36387)
(0.0172965 0.00577077 1.43664)
(0.0191161 0.0081029 1.63208)
(0.0173519 0.0103427 1.76869)
(0.0120985 0.0120985 1.85458)
(0.00433531 0.0130643 1.89588)
(-0.00433531 0.0130643 1.89588)
(-0.0120985 0.0120985 1.85458)
(-0.0173519 0.0103427 1.76869)
(-0.0191161 0.0081029 1.63208)
(-0.0172965 0.00577077 1.43664)
(0.0185633 0.00205882 1.4733)
(0.0205983 0.0028977 1.67117)
(0.018728 0.00370399 1.80931)
(0.0130643 0.00433531 1.89588)
(0.00468225 0.00468225 1.93736)
(-0.00468225 0.00468225 1.93736)
(-0.0130643 0.00433531 1.89588)
(-0.018728 0.00370399 1.80931)
(-0.0205983 0.0028977 1.67117)
(-0.0185633 0.00205882 1.4733)
(0.0185633 -0.00205882 1.4733)
(0.0205983 -0.0028977 1.67117)
(0.018728 -0.00370399 1.80931)
(0.0130643 -0.00433531 1.89588)
(0.00468225 -0.00468225 1.93736)
(-0.00468225 -0.00468225 1.93736)
(-0.0130643 -0.00433531 1.89588)
(-0.018728 -0.00370399 1.80931)
(-0.0205983 -0.0028977 1.67117)
(-0.0185633 -0.00205882 1.4733)
(0.0172965 -0.00577077 1.43664)
(0.0191161 -0.0081029 1.63208)
(0.0173519 -0.0103427 1.76869)
(0.0120985 -0.0120985 1.85458)
(0.00433531 -0.0130643 1.89588)
(-0.00433531 -0.0130643 1.89588)
(-0.0120985 -0.0120985 1.85458)
(-0.0173519 -0.0103427 1.76869)
(-0.0191161 -0.0081029 1.63208)
(-0.0172965 -0.00577077 1.43664)
(0.0150161 -0.00838316 1.36387)
(0.0164393 -0.0116856 1.5525)
(0.0148558 -0.0148558 1.6848)
(0.0103427 -0.0173519 1.76869)
(0.00370399 -0.018728 1.80931)
(-0.00370399 -0.018728 1.80931)
(-0.0103427 -0.0173519 1.76869)
(-0.0148558 -0.0148558 1.6848)
(-0.0164393 -0.0116856 1.5525)
(-0.0150161 -0.00838316 1.36387)
(0.0121596 -0.00954265 1.25663)
(0.0130698 -0.0130698 1.42944)
(0.0116856 -0.0164393 1.5525)
(0.0081029 -0.0191161 1.63208)
(0.0028977 -0.0205983 1.67117)
(-0.0028977 -0.0205983 1.67117)
(-0.0081029 -0.0191161 1.63208)
(-0.0116856 -0.0164393 1.5525)
(-0.0130698 -0.0130698 1.42944)
(-0.0121596 -0.00954265 1.25663)
(0.00911973 -0.00911973 1.11711)
(0.00954265 -0.0121596 1.25663)
(0.00838316 -0.0150161 1.36387)
(0.00577077 -0.0172965 1.43664)
(0.00205882 -0.0185633 1.4733)
(-0.00205882 -0.0185633 1.4733)
(-0.00577077 -0.0172965 1.43664)
(-0.00838316 -0.0150161 1.36387)
(-0.00954265 -0.0121596 1.25663)
(-0.00911973 -0.00911973 1.11711)
(0.00503655 0.00503655 1.10828)
(0.00532507 0.00671704 1.25012)
(0.00471054 0.00830967 1.3602)
(0.00325936 0.00959351 1.43552)
(0.0011661 0.0103113 1.47367)
(-0.0011661 0.0103113 1.47367)
(-0.00325936 0.00959351 1.43552)
(-0.00471054 0.00830967 1.3602)
(-0.00532507 0.00671704 1.25012)
(-0.00503655 0.00503655 1.10828)
(0.00671704 0.00532507 1.25012)
(0.00730224 0.00730224 1.42731)
(0.00658903 0.00921805 1.55531)
(0.00460076 0.0107598 1.63915)
(0.00165147 0.0116206 1.68069)
(-0.00165147 0.0116206 1.68069)
(-0.00460076 0.0107598 1.63915)
(-0.00658903 0.00921805 1.55531)
(-0.00730224 0.00730224 1.42731)
(-0.00671704 0.00532507 1.25012)
(0.00830967 0.00471054 1.3602)
(0.00921805 0.00658903 1.55531)
(0.00842524 0.00842524 1.69468)
(0.00591583 0.0098933 1.78453)
(0.00212827 0.0107106 1.82856)
(-0.00212827 0.0107106 1.82856)
(-0.00591583 0.0098933 1.78453)
(-0.00842524 0.00842524 1.69468)
(-0.00921805 0.00658903 1.55531)
(-0.00830967 0.00471054 1.3602)
(0.00959351 0.00325936 1.43552)
(0.0107598 0.00460076 1.63915)
(0.0098933 0.00591583 1.78453)
(0.00696448 0.00696448 1.87776)
(0.00250833 0.00754756 1.92322)
(-0.00250833 0.00754756 1.92322)
(-0.00696448 0.00696448 1.87776)
(-0.00989329 0.00591583 1.78453)
(-0.0107598 0.00460076 1.63915)
(-0.00959351 0.00325936 1.43552)
(0.0103113 0.0011661 1.47367)
(0.0116206 0.00165147 1.68069)
(0.0107106 0.00212827 1.82856)
(0.00754756 0.00250833 1.92322)
(0.00271959 0.00271959 1.96928)
(-0.00271959 0.00271959 1.96928)
(-0.00754756 0.00250833 1.92322)
(-0.0107106 0.00212827 1.82856)
(-0.0116206 0.00165147 1.68069)
(-0.0103113 0.0011661 1.47367)
(0.0103113 -0.0011661 1.47367)
(0.0116206 -0.00165147 1.68069)
(0.0107106 -0.00212827 1.82856)
(0.00754756 -0.00250833 1.92322)
(0.00271959 -0.00271959 1.96928)
(-0.00271959 -0.00271959 1.96928)
(-0.00754756 -0.00250833 1.92322)
(-0.0107106 -0.00212827 1.82856)
(-0.0116206 -0.00165147 1.68069)
(-0.0103113 -0.0011661 1.47367)
(0.00959351 -0.00325936 1.43552)
(0.0107598 -0.00460076 1.63915)
(0.0098933 -0.00591583 1.78453)
(0.00696448 -0.00696448 1.87776)
(0.00250833 -0.00754756 1.92322)
(-0.00250833 -0.00754756 1.92322)
(-0.00696448 -0.00696448 1.87776)
(-0.00989329 -0.00591583 1.78453)
(-0.0107598 -0.00460076 1.63915)
(-0.00959351 -0.00325936 1.43552)
(0.00830967 -0.00471054 1.3602)
(0.00921805 -0.00658903 1.55531)
(0.00842524 -0.00842524 1.69468)
(0.00591583 -0.00989329 1.78453)
(0.00212827 -0.0107106 1.82856)
(-0.00212827 -0.0107106 1.82856)
(-0.00591583 -0.00989329 1.78453)
(-0.00842524 -0.00842524 1.69468)
(-0.00921805 -0.00658903 1.55531)
(-0.00830967 -0.00471054 1.3602)
(0.00671704 -0.00532507 1.25012)
(0.00730224 -0.00730224 1.42731)
(0.00658903 -0.00921805 1.55531)
(0.00460076 -0.0107598 1.63915)
(0.00165147 -0.0116206 1.68069)
(-0.00165147 -0.0116206 1.68069)
(-0.00460076 -0.0107598 1.63915)
(-0.00658903 -0.00921805 1.55531)
(-0.00730224 -0.00730224 1.42731)
(-0.00671704 -0.00532507 1.25012)
(0.00503655 -0.00503655 1.10828)
(0.00532507 -0.00671704 1.25012)
(0.00471054 -0.00830967 1.3602)
(0.00325936 -0.00959351 1.43552)
(0.0011661 -0.0103113 1.47367)
(-0.0011661 -0.0103113 1.47367)
(-0.00325936 -0.00959351 1.43552)
(-0.00471054 -0.00830967 1.3602)
(-0.00532507 -0.00671704 1.25012)
(-0.00503655 -0.00503655 1.10828)
(0.00279516 0.00279516 1.10386)
(0.00296688 0.00373866 1.24689)
(0.00263718 0.00463935 1.35849)
(0.00183172 0.0053691 1.43519)
(0.000656697 0.00577849 1.47416)
(-0.000656697 0.00577849 1.47416)
(-0.00183172 0.0053691 1.43519)
(-0.00263718 0.00463935 1.35849)
(-0.00296688 0.00373866 1.24689)
(-0.00279516 0.00279516 1.10386)
(0.00373866 0.00296688 1.24689)
(0.00408739 0.00408739 1.4264)
(0.00371072 0.005183 1.5571)
(0.00260331 0.00607102 1.64331)
(0.00093688 0.00656925 1.68624)
(-0.00093688 0.00656925 1.68624)
(-0.00260331 0.00607102 1.64331)
(-0.00371072 0.005183 1.5571)
(-0.00408739 0.00408739 1.4264)
(-0.00373866 0.00296688 1.24689)
(0.00463935 0.00263718 1.35849)
(0.005183 0.00371072 1.5571)
(0.00477163 0.00477163 1.70041)
(0.0033693 0.00562765 1.79368)
(0.00121583 0.00610713 1.83967)
(-0.00121583 0.00610713 1.83967)
(-0.0033693 0.00562765 1.79368)
(-0.00477163 0.00477163 1.70041)
(-0.005183 0.00371072 1.5571)
(-0.00463935 0.00263718 1.35849)
(0.0053691 0.00183172 1.43519)
(0.00607102 0.00260331 1.64331)
(0.00562765 0.0033693 1.79368)
(0.00398664 0.00398664 1.89117)
(0.00144073 0.00433229 1.93908)
(-0.00144073 0.00433229 1.93908)
(-0.00398664 0.00398664 1.89117)
(-0.00562765 0.0033693 1.79368)
(-0.00607102 0.00260331 1.64331)
(-0.0053691 0.00183172 1.43519)
(0.00577849 0.000656697 1.47416)
(0.00656925 0.00093688 1.68624)
(0.00610713 0.00121583 1.83967)
(0.00433229 0.00144073 1.93908)
(0.00156667 0.00156667 1.98787)
(-0.00156667 0.00156667 1.98787)
(-0.00433229 0.00144073 1.93908)
(-0.00610713 0.00121583 1.83967)
(-0.00656925 0.00093688 1.68624)
(-0.00577849 0.000656697 1.47416)
(0.00577849 -0.000656697 1.47416)
(0.00656925 -0.00093688 1.68624)
(0.00610713 -0.00121583 1.83967)
(0.00433229 -0.00144073 1.93908)
(0.00156667 -0.00156667 1.98787)
(-0.00156667 -0.00156667 1.98787)
(-0.00433229 -0.00144073 1.93908)
(-0.00610713 -0.00121583 1.83967)
(-0.00656925 -0.00093688 1.68624)
(-0.00577849 -0.000656697 1.47416)
(0.0053691 -0.00183172 1.43519)
(0.00607102 -0.00260331 1.64331)
(0.00562765 -0.0033693 1.79368)
(0.00398664 -0.00398664 1.89117)
(0.00144073 -0.00433229 1.93908)
(-0.00144073 -0.00433229 1.93908)
(-0.00398664 -0.00398664 1.89117)
(-0.00562765 -0.0033693 1.79368)
(-0.00607102 -0.00260331 1.64331)
(-0.0053691 -0.00183172 1.43519)
(0.00463935 -0.00263718 1.35849)
(0.005183 -0.00371072 1.5571)
(0.00477163 -0.00477163 1.70041)
(0.0033693 -0.00562765 1.79368)
(0.00121583 -0.00610713 1.83967)
(-0.00121583 -0.00610713 1.83967)
(-0.0033693 -0.00562765 1.79368)
(-0.00477163 -0.00477163 1.70041)
(-0.005183 -0.00371072 1.5571)
(-0.00463935 -0.00263718 1.35849)
(0.00373866 -0.00296688 1.24689)
(0.00408739 -0.00408739 1.4264)
(0.00371072 -0.005183 1.5571)
(0.00260331 -0.00607102 1.64331)
(0.00093688 -0.00656925 1.68624)
(-0.00093688 -0.00656925 1.68624)
(-0.00260331 -0.00607102 1.64331)
(-0.00371072 -0.005183 1.5571)
(-0.00408739 -0.00408739 1.4264)
(-0.00373866 -0.00296688 1.24689)
(0.00279516 -0.00279516 1.10386)
(0.00296688 -0.00373866 1.24689)
(0.00263718 -0.00463935 1.35849)
(0.00183172 -0.0053691 1.43519)
(0.000656697 -0.00577849 1.47416)
(-0.000656697 -0.00577849 1.47416)
(-0.00183172 -0.0053691 1.43519)
(-0.00263718 -0.00463935 1.35849)
(-0.00296688 -0.00373866 1.24689)
(-0.00279516 -0.00279516 1.10386)
(0.00159768 0.00159768 1.10116)
(0.0016996 0.00213552 1.24487)
(0.00151313 0.0026498 1.35733)
(0.0010524 0.0030675 1.43483)
(0.000377597 0.00330225 1.47427)
(-0.000377597 0.00330225 1.47427)
(-0.0010524 0.0030675 1.43483)
(-0.00151313 0.0026498 1.35733)
(-0.0016996 0.00213552 1.24487)
(-0.00159768 0.00159768 1.10116)
(0.00213552 0.0016996 1.24487)
(0.0023402 0.0023402 1.42569)
(0.0021294 0.00296892 1.55794)
(0.0014969 0.0034805 1.64552)
(0.000539331 0.0037683 1.68925)
(-0.000539331 0.0037683 1.68925)
(-0.0014969 0.0034805 1.64552)
(-0.0021294 0.00296892 1.55794)
(-0.0023402 0.0023402 1.42569)
(-0.00213552 0.0016996 1.24487)
(0.0026498 0.00151313 1.35733)
(0.00296892 0.0021294 1.55794)
(0.00274178 0.00274178 1.70352)
(0.00194116 0.00323846 1.79876)
(0.000701548 0.00351765 1.84592)
(-0.000701548 0.00351765 1.84592)
(-0.00194116 0.00323846 1.79876)
(-0.00274178 0.00274178 1.70352)
(-0.00296892 0.0021294 1.55794)
(-0.0026498 0.00151313 1.35733)
(0.0030675 0.0010524 1.43483)
(0.0034805 0.0014969 1.64552)
(0.00323846 0.00194116 1.79876)
(0.00230142 0.00230142 1.89875)
(0.000833211 0.00250398 1.94811)
(-0.000833211 0.00250398 1.94811)
(-0.00230142 0.00230142 1.89875)
(-0.00323846 0.00194116 1.79876)
(-0.0034805 0.0014969 1.64552)
(-0.0030675 0.0010524 1.43483)
(0.00330225 0.000377597 1.47427)
(0.0037683 0.000539331 1.68925)
(0.00351765 0.000701548 1.84592)
(0.00250398 0.000833211 1.94811)
(0.000907272 0.000907272 1.99852)
(-0.000907272 0.000907272 1.99852)
(-0.00250398 0.000833211 1.94811)
(-0.00351765 0.000701548 1.84592)
(-0.0037683 0.000539331 1.68925)
(-0.00330225 0.000377597 1.47427)
(0.00330225 -0.000377597 1.47427)
(0.0037683 -0.000539331 1.68925)
(0.00351765 -0.000701548 1.84592)
(0.00250398 -0.000833211 1.94811)
(0.000907272 -0.000907272 1.99852)
(-0.000907272 -0.000907272 1.99852)
(-0.00250398 -0.000833211 1.94811)
(-0.00351765 -0.000701548 1.84592)
(-0.0037683 -0.000539331 1.68925)
(-0.00330225 -0.000377597 1.47427)
(0.0030675 -0.0010524 1.43483)
(0.0034805 -0.0014969 1.64552)
(0.00323846 -0.00194116 1.79876)
(0.00230142 -0.00230142 1.89875)
(0.000833211 -0.00250398 1.94811)
(-0.000833211 -0.00250398 1.94811)
(-0.00230142 -0.00230142 1.89875)
(-0.00323846 -0.00194116 1.79876)
(-0.0034805 -0.0014969 1.64552)
(-0.0030675 -0.0010524 1.43483)
(0.0026498 -0.00151313 1.35733)
(0.00296892 -0.0021294 1.55794)
(0.00274178 -0.00274178 1.70352)
(0.00194116 -0.00323846 1.79876)
(0.000701548 -0.00351765 1.84592)
(-0.000701548 -0.00351765 1.84592)
(-0.00194116 -0.00323846 1.79876)
(-0.00274178 -0.00274178 1.70352)
(-0.00296892 -0.0021294 1.55794)
(-0.0026498 -0.00151313 1.35733)
(0.00213552 -0.0016996 1.24487)
(0.0023402 -0.0023402 1.42569)
(0.0021294 -0.00296892 1.55794)
(0.0014969 -0.0034805 1.64552)
(0.000539331 -0.0037683 1.68925)
(-0.000539331 -0.0037683 1.68925)
(-0.0014969 -0.0034805 1.64552)
(-0.0021294 -0.00296892 1.55794)
(-0.0023402 -0.0023402 1.42569)
(-0.00213552 -0.0016996 1.24487)
(0.00159768 -0.00159768 1.10116)
(0.0016996 -0.00213552 1.24487)
(0.00151313 -0.0026498 1.35733)
(0.0010524 -0.0030675 1.43483)
(0.000377597 -0.00330225 1.47427)
(-0.000377597 -0.00330225 1.47427)
(-0.0010524 -0.0030675 1.43483)
(-0.00151313 -0.0026498 1.35733)
(-0.0016996 -0.00213552 1.24487)
(-0.00159768 -0.00159768 1.10116)
(0.000919369 0.000919369 1.09967)
(0.000978465 0.0012295 1.24375)
(0.000871951 0.00152645 1.3567)
(0.000606972 0.0017679 1.43465)
(0.000217889 0.00190368 1.47437)
(-0.000217889 0.00190368 1.47437)
(-0.000606971 0.0017679 1.43465)
(-0.000871951 0.00152645 1.3567)
(-0.000978465 0.0012295 1.24375)
(-0.000919369 0.000919369 1.09967)
(0.0012295 0.000978465 1.24375)
(0.00134844 0.00134844 1.42531)
(0.00122855 0.00171229 1.55844)
(0.000864621 0.00200888 1.64681)
(0.000311732 0.00217595 1.69101)
(-0.000311732 0.00217595 1.69101)
(-0.000864621 0.00200888 1.64681)
(-0.00122855 0.00171229 1.55844)
(-0.00134844 0.00134844 1.42531)
(-0.0012295 0.000978465 1.24375)
(0.00152645 0.000871951 1.3567)
(0.00171229 0.00122855 1.55844)
(0.00158389 0.00158389 1.70532)
(0.00112304 0.00187286 1.80171)
(0.000406223 0.00203559 1.84954)
(-0.000406223 0.00203559 1.84954)
(-0.00112304 0.00187286 1.80171)
(-0.00158389 0.00158389 1.70532)
(-0.00171229 0.00122855 1.55844)
(-0.00152645 0.000871951 1.3567)
(0.0017679 0.000606972 1.43465)
(0.00200888 0.000864621 1.64681)