/*--------------------------------*- C++ -*----------------------------------*\
| =========                 |                                                 |
| \\      /  F ield         | OpenFOAM: The Open Source CFD Toolbox           |
|  \\    /   O peration     | Version:  2412                                  |
|   \\  /    A nd           | Website:  www.openfoam.com                      |
|    \\/     M anipulation  |                                                 |
\*---------------------------------------------------------------------------*/
FoamFile
{
    version     2.0;
    format      ascii;
    arch        "LSB;label=32;scalar=64";
    class       surfaceScalarField;
    location    "9.5";
    object      phi;
}
// * * * * * * * * * * * * * * * * * * * * * * * * * * * * * * * * * * * * * //

dimensions      [0 3 -1 0 0 0 0];

oriented        oriented;

internalField   nonuniform List<scalar> 
43700
(
1.82854e-07
1.82854e-07
5.49974e-07
-2.22832e-07
-2.22832e-07
1.35057e-07
1.6178e-07
5.93541e-07
-1.9814e-07
8.93797e-08
1.48267e-07
6.24413e-07
-1.87572e-07
4.43374e-08
1.39323e-07
6.44232e-07
-1.78801e-07
2.88186e-17
1.35045e-07
6.53982e-07
-1.74761e-07
-4.43374e-08
1.35045e-07
6.53982e-07
-1.74761e-07
-8.93797e-08
1.39323e-07
6.44232e-07
-1.78801e-07
-1.35057e-07
1.48267e-07
6.24413e-07
-1.87572e-07
-1.82854e-07
1.6178e-07
5.93541e-07
-1.9814e-07
1.82854e-07
5.49974e-07
-2.22832e-07
-2.22832e-07
1.6178e-07
1.35057e-07
5.93541e-07
-1.9814e-07
1.20194e-07
1.20194e-07
6.29016e-07
7.91907e-08
1.09061e-07
6.539e-07
3.92292e-08
1.01709e-07
6.70073e-07
7.49356e-17
9.8138e-08
6.78109e-07
-3.92292e-08
9.8138e-08
6.78109e-07
-7.91907e-08
1.01709e-07
6.70073e-07
-1.20194e-07
1.09061e-07
6.539e-07
-1.6178e-07
1.20194e-07
6.29016e-07
1.35057e-07
5.93541e-07
-1.9814e-07
1.48267e-07
8.93797e-08
6.24413e-07
-1.87572e-07
1.09061e-07
7.91907e-08
6.539e-07
7.14977e-08
7.14977e-08
6.75e-07
3.53536e-08
6.64139e-08
6.89001e-07
3.10175e-17
6.39294e-08
6.9604e-07
-3.53536e-08
6.39293e-08
6.9604e-07
-7.14977e-08
6.64139e-08
6.89001e-07
-1.09061e-07
7.14977e-08
6.75e-07
-1.48267e-07
7.91907e-08
6.539e-07
8.93797e-08
6.24413e-07
-1.87572e-07
1.39323e-07
4.43374e-08
6.44232e-07
-1.78801e-07
1.01709e-07
3.92292e-08
6.70073e-07
6.64139e-08
3.53536e-08
6.89001e-07
3.27797e-08
3.27797e-08
7.01771e-07
-3.78841e-16
3.15159e-08
7.08235e-07
-3.27797e-08
3.15159e-08
7.08235e-07
-6.64139e-08
3.27797e-08
7.01771e-07
-1.01709e-07
3.53536e-08
6.89001e-07
-1.39323e-07
3.92292e-08
6.70073e-07
4.43374e-08
6.44232e-07
-1.78801e-07
1.35045e-07
-4.55782e-16
6.53982e-07
-1.74761e-07
9.8138e-08
-2.82753e-16
6.78109e-07
6.39294e-08
-4.3193e-16
6.9604e-07
3.15159e-08
-6.13758e-16
7.08235e-07
-3.73905e-16
-5.79832e-16
7.14424e-07
-3.15159e-08
-4.25241e-16
7.14424e-07
-6.39294e-08
-2.27705e-16
7.08235e-07
-9.8138e-08
-1.83606e-16
6.9604e-07
-1.35045e-07
-2.36782e-16
6.78109e-07
-5.38702e-16
6.53982e-07
-1.74761e-07
1.35045e-07
-4.43374e-08
6.53982e-07
-1.74761e-07
9.8138e-08
-3.92292e-08
6.78109e-07
6.39294e-08
-3.53536e-08
6.9604e-07
3.15159e-08
-3.27797e-08
7.08235e-07
-2.45978e-16
-3.15159e-08
7.14424e-07
-3.15159e-08
-3.15159e-08
7.14424e-07
-6.39294e-08
-3.27797e-08
7.08235e-07
-9.8138e-08
-3.53536e-08
6.9604e-07
-1.35045e-07
-3.92292e-08
6.78109e-07
-4.43374e-08
6.53982e-07
-1.74761e-07
1.39323e-07
-8.93797e-08
6.44232e-07
-1.78801e-07
1.01709e-07
-7.91907e-08
6.70073e-07
6.64139e-08
-7.14977e-08
6.89001e-07
3.27797e-08
-6.64139e-08
7.01771e-07
1.27548e-16
-6.39294e-08
7.08235e-07
-3.27797e-08
-6.39294e-08
7.08235e-07
-6.64139e-08
-6.64139e-08
7.01771e-07
-1.01709e-07
-7.14977e-08
6.89001e-07
-1.39323e-07
-7.91907e-08
6.70073e-07
-8.93797e-08
6.44232e-07
-1.78801e-07
1.48267e-07
-1.35057e-07
6.24413e-07
-1.87572e-07
1.09061e-07
-1.20194e-07
6.539e-07
7.14977e-08
-1.09061e-07
6.75e-07
3.53536e-08
-1.01709e-07
6.89001e-07
-1.08758e-17
-9.8138e-08
6.9604e-07
-3.53536e-08
-9.8138e-08
6.9604e-07
-7.14977e-08
-1.01709e-07
6.89001e-07
-1.09061e-07
-1.09061e-07
6.75e-07
-1.48267e-07
-1.20194e-07
6.539e-07
-1.35057e-07
6.24413e-07
-1.87572e-07
1.6178e-07
-1.82854e-07
5.93541e-07
-1.9814e-07
1.20194e-07
-1.6178e-07
6.29016e-07
7.91907e-08
-1.48267e-07
6.539e-07
3.92292e-08
-1.39323e-07
6.70073e-07
-1.34604e-16
-1.35045e-07
6.78109e-07
-3.92292e-08
-1.35045e-07
6.78109e-07
-7.91907e-08
-1.39323e-07
6.70073e-07
-1.20194e-07
-1.48267e-07
6.539e-07
-1.6178e-07
-1.6178e-07
6.29016e-07
-1.82854e-07
5.93541e-07
-1.9814e-07
1.82854e-07
5.49974e-07
-2.22832e-07
-2.22832e-07
1.35057e-07
5.93541e-07
-1.9814e-07
8.93797e-08
6.24413e-07
-1.87572e-07
4.43374e-08
6.44232e-07
-1.78801e-07
-3.35831e-17
6.53982e-07
-1.74761e-07
-4.43374e-08
6.53982e-07
-1.74761e-07
-8.93797e-08
6.44232e-07
-1.78801e-07
-1.35057e-07
6.24413e-07
-1.87572e-07
-1.82854e-07
5.93541e-07
-1.9814e-07
5.49974e-07
-2.22832e-07
-2.22832e-07
1.32284e-07
1.32284e-07
5.87055e-07
-1.50824e-07
-1.50824e-07
1.04289e-07
1.2998e-07
6.43184e-07
-1.51628e-07
7.13084e-08
1.26283e-07
6.81732e-07
-1.50622e-07
3.60132e-08
1.22695e-07
7.05529e-07
-1.48696e-07
2.29824e-16
1.20782e-07
7.16897e-07
-1.47684e-07
-3.60132e-08
1.20782e-07
7.16897e-07
-1.47684e-07
-7.13084e-08
1.22695e-07
7.05529e-07
-1.48696e-07
-1.04289e-07
1.26283e-07
6.81732e-07
-1.50622e-07
-1.32284e-07
1.2998e-07
6.43184e-07
-1.51628e-07
1.32284e-07
5.87055e-07
-1.50824e-07
-1.50824e-07
1.2998e-07
1.04289e-07
6.43184e-07
-1.51628e-07
1.00242e-07
1.00242e-07
6.88491e-07
6.74409e-08
9.55728e-08
7.17412e-07
3.37422e-08
9.17354e-08
7.34731e-07
2.57233e-16
8.97191e-08
7.42914e-07
-3.37422e-08
8.97191e-08
7.42914e-07
-6.74409e-08
9.17354e-08
7.34731e-07
-1.00242e-07
9.55728e-08
7.17412e-07
-1.2998e-07
1.00242e-07
6.88491e-07
1.04289e-07
6.43184e-07
-1.51628e-07
1.26283e-07
7.13084e-08
6.81732e-07
-1.50622e-07
9.55728e-08
6.74409e-08
7.17412e-07
6.34439e-08
6.34439e-08
7.39258e-07
3.15183e-08
6.0401e-08
7.52261e-07
-4.66926e-17
5.88312e-08
7.58446e-07
-3.15183e-08
5.88312e-08
7.58446e-07
-6.34439e-08
6.0401e-08
7.52261e-07
-9.55728e-08
6.34439e-08
7.39258e-07
-1.26283e-07
6.74409e-08
7.17412e-07
7.13084e-08
6.81732e-07
-1.50622e-07
1.22695e-07
3.60132e-08
7.05529e-07
-1.48696e-07
9.17354e-08
3.37422e-08
7.34731e-07
6.0401e-08
3.15183e-08
7.52261e-07
2.98809e-08
2.98809e-08
7.62811e-07
-3.46714e-16
2.90447e-08
7.67903e-07
-2.98809e-08
2.90447e-08
7.67903e-07
-6.0401e-08
2.98809e-08
7.62811e-07
-9.17354e-08
3.15183e-08
7.52261e-07
-1.22695e-07
3.37422e-08
7.34731e-07
3.60132e-08
7.05529e-07
-1.48696e-07
1.20782e-07
-6.11625e-16
7.16897e-07
-1.47684e-07
8.97191e-08
-3.43729e-16
7.42914e-07
5.88312e-08
-5.57889e-16
7.58446e-07
2.90447e-08
-7.4305e-16
7.67903e-07
-1.07668e-16
-4.22355e-16
7.72514e-07
-2.90447e-08
-3.77571e-16
7.72514e-07
-5.88312e-08
-4.76586e-16
7.67903e-07
-8.97191e-08
-3.5908e-16
7.58446e-07
-1.20782e-07
-1.54969e-16
7.42914e-07
-2.92159e-16
7.16897e-07
-1.47684e-07
1.20782e-07
-3.60132e-08
7.16897e-07
-1.47684e-07
8.97191e-08
-3.37422e-08
7.42914e-07
5.88312e-08
-3.15183e-08
7.58446e-07
2.90447e-08
-2.98809e-08
7.67903e-07
-3.97249e-17
-2.90447e-08
7.72514e-07
-2.90447e-08
-2.90447e-08
7.72514e-07
-5.88312e-08
-2.98809e-08
7.67903e-07
-8.97191e-08
-3.15183e-08
7.58446e-07
-1.20782e-07
-3.37422e-08
7.42914e-07
-3.60132e-08
7.16897e-07
-1.47684e-07
1.22695e-07
-7.13084e-08
7.05529e-07
-1.48696e-07
9.17354e-08
-6.74409e-08
7.34731e-07
6.0401e-08
-6.34439e-08
7.52261e-07
2.98809e-08
-6.0401e-08
7.62811e-07
-4.34487e-17
-5.88312e-08
7.67903e-07
-2.98809e-08
-5.88312e-08
7.67903e-07
-6.0401e-08
-6.0401e-08
7.62811e-07
-9.17354e-08
-6.34439e-08
7.52261e-07
-1.22695e-07
-6.74409e-08
7.34731e-07
-7.13084e-08
7.05529e-07
-1.48696e-07
1.26283e-07
-1.04289e-07
6.81732e-07
-1.50622e-07
9.55728e-08
-1.00242e-07
7.17412e-07
6.34439e-08
-9.55728e-08
7.39258e-07
3.15183e-08
-9.17354e-08
7.52261e-07
-3.6806e-16
-8.97191e-08
7.58446e-07
-3.15183e-08
-8.97191e-08
7.58446e-07
-6.34439e-08
-9.17354e-08
7.52261e-07
-9.55728e-08
-9.55728e-08
7.39258e-07
-1.26283e-07
-1.00242e-07
7.17412e-07
-1.04289e-07
6.81732e-07
-1.50622e-07
1.2998e-07
-1.32284e-07
6.43184e-07
-1.51628e-07
1.00242e-07
-1.2998e-07
6.88491e-07
6.74409e-08
-1.26283e-07
7.17412e-07
3.37422e-08
-1.22695e-07
7.34731e-07
-3.32406e-16
-1.20782e-07
7.42914e-07
-3.37422e-08
-1.20782e-07
7.42914e-07
-6.74409e-08
-1.22695e-07
7.34731e-07
-1.00242e-07
-1.26283e-07
7.17412e-07
-1.2998e-07
-1.2998e-07
6.88491e-07
-1.32284e-07
6.43184e-07
-1.51628e-07
1.32284e-07
5.87055e-07
-1.50824e-07
-1.50824e-07
1.04289e-07
6.43184e-07
-1.51628e-07
7.13084e-08
6.81732e-07
-1.50622e-07
3.60132e-08
7.05529e-07
-1.48696e-07
-4.23816e-17
7.16897e-07
-1.47684e-07
-3.60132e-08
7.16897e-07
-1.47684e-07
-7.13084e-08
7.05529e-07
-1.48696e-07
-1.04289e-07
6.81732e-07
-1.50622e-07
-1.32284e-07
6.43184e-07
-1.51628e-07
5.87055e-07
-1.50824e-07
-1.50824e-07
1.08903e-07
1.08903e-07
5.96932e-07
-1.13841e-07
-1.13841e-07
9.16326e-08
1.1548e-07
6.67677e-07
-1.22703e-07
6.5386e-08
1.1805e-07
7.17173e-07
-1.27244e-07
3.38799e-08
1.18378e-07
7.47928e-07
-1.29271e-07
-1.90444e-16
1.18226e-07
7.62594e-07
-1.30043e-07
-3.38799e-08
1.18226e-07
7.62594e-07
-1.30043e-07
-6.5386e-08
1.18378e-07
7.47928e-07
-1.29271e-07
-9.16326e-08
1.1805e-07
7.17173e-07
-1.27244e-07
-1.08903e-07
1.1548e-07
6.67677e-07
-1.22703e-07
1.08903e-07
5.96932e-07
-1.13841e-07
-1.13841e-07
1.1548e-07
9.16326e-08
6.67677e-07
-1.22703e-07
9.52369e-08
9.52369e-08
7.28977e-07
6.69941e-08
9.57481e-08
7.67956e-07
3.43972e-08
9.4909e-08
7.90796e-07
-3.13104e-16
9.41996e-08
8.01338e-07
-3.43972e-08
9.41996e-08
8.01338e-07
-6.69941e-08
9.4909e-08
7.90796e-07
-9.52369e-08
9.57481e-08
7.67956e-07
-1.1548e-07
9.52369e-08
7.28977e-07
9.16326e-08
6.67677e-07
-1.22703e-07
1.1805e-07
6.5386e-08
7.17173e-07
-1.27244e-07
9.57481e-08
6.69941e-08
7.67956e-07
6.64897e-08
6.64897e-08
7.97774e-07
3.38844e-08
6.53532e-08
8.14423e-07
-5.87246e-16
6.45867e-08
8.21944e-07
-3.38844e-08
6.45867e-08
8.21944e-07
-6.64897e-08
6.53532e-08
8.14423e-07
-9.57481e-08
6.64897e-08
7.97774e-07
-1.1805e-07
6.69941e-08
7.67956e-07
6.5386e-08
7.17173e-07
-1.27244e-07
1.18378e-07
3.38799e-08
7.47928e-07
-1.29271e-07
9.4909e-08
3.43972e-08
7.90796e-07
6.53532e-08
3.38844e-08
8.14423e-07
3.31512e-08
3.31512e-08
8.27216e-07
-5.18355e-16
3.26884e-08
8.32952e-07
-3.31512e-08
3.26884e-08
8.32952e-07
-6.53532e-08
3.31512e-08
8.27216e-07
-9.4909e-08
3.38844e-08
8.14423e-07
-1.18378e-07
3.43972e-08
7.90796e-07
3.38799e-08
7.47928e-07
-1.29271e-07
1.18226e-07
-5.0711e-16
7.62594e-07
-1.30043e-07
9.41996e-08
-2.55327e-16
8.01338e-07
6.45867e-08
-8.42931e-16
8.21944e-07
3.26884e-08
-1.03738e-15
8.32952e-07
-1.43122e-16
-4.50277e-16
8.37891e-07
-3.26884e-08
-2.63435e-16
8.37891e-07
-6.45867e-08
-4.53492e-16
8.32952e-07
-9.41996e-08
-2.10085e-16
8.21944e-07
-1.18226e-07
1.08161e-18
8.01338e-07
-2.81815e-16
7.62594e-07
-1.30043e-07
1.18226e-07
-3.38799e-08
7.62594e-07
-1.30043e-07
9.41996e-08
-3.43972e-08
8.01338e-07
6.45867e-08
-3.38844e-08
8.21944e-07
3.26884e-08
-3.31512e-08
8.32952e-07
-1.94012e-17
-3.26884e-08
8.37891e-07
-3.26884e-08
-3.26884e-08
8.37891e-07
-6.45867e-08
-3.31512e-08
8.32952e-07
-9.41996e-08
-3.38844e-08
8.21944e-07
-1.18226e-07
-3.43972e-08
8.01338e-07
-3.38799e-08
7.62594e-07
-1.30043e-07
1.18378e-07
-6.5386e-08
7.47928e-07
-1.29271e-07
9.4909e-08
-6.69941e-08
7.90796e-07
6.53532e-08
-6.64897e-08
8.14423e-07
3.31512e-08
-6.53532e-08
8.27216e-07
2.56533e-16
-6.45867e-08
8.32952e-07
-3.31512e-08
-6.45867e-08
8.32952e-07
-6.53532e-08
-6.53532e-08
8.27216e-07
-9.4909e-08
-6.64897e-08
8.14423e-07
-1.18378e-07
-6.69941e-08
7.90796e-07
-6.5386e-08
7.47928e-07
-1.29271e-07
1.1805e-07
-9.16326e-08
7.17173e-07
-1.27244e-07
9.57481e-08
-9.52369e-08
7.67956e-07
6.64897e-08
-9.57481e-08
7.97774e-07
3.38844e-08
-9.4909e-08
8.14423e-07
1.49832e-16
-9.41996e-08
8.21944e-07
-3.38844e-08
-9.41996e-08
8.21944e-07
-6.64897e-08
-9.4909e-08
8.14423e-07
-9.57481e-08
-9.57481e-08
7.97774e-07
-1.1805e-07
-9.52369e-08
7.67956e-07
-9.16326e-08
7.17173e-07
-1.27244e-07
1.1548e-07
-1.08903e-07
6.67677e-07
-1.22703e-07
9.52369e-08
-1.1548e-07
7.28977e-07
6.69941e-08
-1.1805e-07
7.67956e-07
3.43972e-08
-1.18378e-07
7.90796e-07
2.72381e-17
-1.18226e-07
8.01338e-07
-3.43972e-08
-1.18226e-07
8.01338e-07
-6.69941e-08
-1.18378e-07
7.90796e-07
-9.52369e-08
-1.1805e-07
7.67956e-07
-1.1548e-07
-1.1548e-07
7.28977e-07
-1.08903e-07
6.67677e-07
-1.22703e-07
1.08903e-07
5.96932e-07
-1.13841e-07
-1.13841e-07
9.16326e-08
6.67677e-07
-1.22703e-07
6.5386e-08
7.17173e-07
-1.27244e-07
3.38799e-08
7.47928e-07
-1.29271e-07
7.74411e-17
7.62594e-07
-1.30043e-07
-3.38799e-08
7.62594e-07
-1.30043e-07
-6.5386e-08
7.47928e-07
-1.29271e-07
-9.16326e-08
7.17173e-07
-1.27244e-07
-1.08903e-07
6.67677e-07
-1.22703e-07
5.96932e-07
-1.13841e-07
-1.13841e-07
6.19469e-08
6.19469e-08
5.95703e-07
-6.13327e-08
-6.13327e-08
5.46242e-08
7.0407e-08
6.74844e-07
-7.02509e-08
4.02474e-08
7.55053e-08
7.3176e-07
-7.57159e-08
2.12751e-08
7.8149e-08
7.67767e-07
-7.90158e-08
2.00562e-16
7.9242e-08
7.85094e-07
-8.04667e-08
-2.12751e-08
7.9242e-08
7.85094e-07
-8.04667e-08
-4.02474e-08
7.8149e-08
7.67767e-07
-7.90158e-08
-5.46242e-08
7.55053e-08
7.3176e-07
-7.57159e-08
-6.19469e-08
7.0407e-08
6.74844e-07
-7.02509e-08
6.19469e-08
5.95703e-07
-6.13327e-08
-6.13327e-08
7.0407e-08
5.46242e-08
6.74844e-07
-7.02509e-08
6.10058e-08
6.10058e-08
7.47779e-07
4.43986e-08
6.45865e-08
7.95482e-07
2.32666e-08
6.6221e-08
8.23856e-07
4.20471e-16
6.6819e-08
8.37027e-07
-2.32666e-08
6.6819e-08
8.37027e-07
-4.43986e-08
6.6221e-08
8.23856e-07
-6.10058e-08
6.45865e-08
7.95482e-07
-7.0407e-08
6.10058e-08
7.47779e-07
5.46242e-08
6.74844e-07
-7.02509e-08
7.55053e-08
4.02474e-08
7.3176e-07
-7.57159e-08
6.45865e-08
4.43986e-08
7.95482e-07
4.64963e-08
4.64963e-08
8.33955e-07
2.42007e-08
4.73293e-08
8.5561e-07
2.75315e-16
4.75829e-08
8.6538e-07
-2.42007e-08
4.75829e-08
8.6538e-07
-4.64963e-08
4.73293e-08
8.5561e-07
-6.45865e-08
4.64963e-08
8.33955e-07
-7.55053e-08
4.43986e-08
7.95482e-07
4.02474e-08
7.3176e-07
-7.57159e-08
7.8149e-08
2.12751e-08
7.67767e-07
-7.90158e-08
6.6221e-08
2.32666e-08
8.23856e-07
4.73293e-08
2.42007e-08
8.5561e-07
2.45336e-08
2.45336e-08
8.72807e-07
2.9171e-16
2.46167e-08
8.80452e-07
-2.45336e-08
2.46167e-08
8.80452e-07
-4.73293e-08
2.45336e-08
8.72807e-07
-6.6221e-08
2.42007e-08
8.5561e-07
-7.8149e-08
2.32666e-08
8.23856e-07
2.12751e-08
7.67767e-07
-7.90158e-08
7.9242e-08
-4.05602e-16
7.85094e-07
-8.04667e-08
6.6819e-08
4.49958e-17
8.37027e-07
4.75829e-08
-2.84013e-16
8.6538e-07
2.46167e-08
-3.13524e-16
8.80452e-07
3.06096e-16
-7.75423e-18
8.87124e-07
-2.46167e-08
-4.84231e-17
8.87124e-07
-4.75829e-08
-5.8171e-16
8.80452e-07
-6.6819e-08
-4.2831e-16
8.6538e-07
-7.9242e-08
-3.61759e-16
8.37027e-07
-4.18605e-16
7.85094e-07
-8.04667e-08
7.9242e-08
-2.12751e-08
7.85094e-07
-8.04667e-08
6.6819e-08
-2.32666e-08
8.37027e-07
4.75829e-08
-2.42007e-08
8.6538e-07
2.46167e-08
-2.45336e-08
8.80452e-07
1.86576e-16
-2.46167e-08
8.87124e-07
-2.46167e-08
-2.46167e-08
8.87124e-07
-4.75829e-08
-2.45336e-08
8.80452e-07
-6.6819e-08
-2.42007e-08
8.6538e-07
-7.9242e-08
-2.32666e-08
8.37027e-07
-2.12751e-08
7.85094e-07
-8.04667e-08
7.8149e-08
-4.02474e-08
7.67767e-07
-7.90158e-08
6.6221e-08
-4.43986e-08
8.23856e-07
4.73293e-08
-4.64963e-08
8.5561e-07
2.45336e-08
-4.73293e-08
8.72807e-07
2.69041e-16
-4.75829e-08
8.80452e-07
-2.45336e-08
-4.75829e-08
8.80452e-07
-4.73293e-08
-4.73293e-08
8.72807e-07
-6.6221e-08
-4.64963e-08
8.5561e-07
-7.8149e-08
-4.43986e-08
8.23856e-07
-4.02474e-08
7.67767e-07
-7.90158e-08
7.55053e-08
-5.46242e-08
7.3176e-07
-7.57159e-08
6.45865e-08
-6.10058e-08
7.95482e-07
4.64963e-08
-6.45865e-08
8.33955e-07
2.42007e-08
-6.6221e-08
8.5561e-07
-2.79133e-17
-6.6819e-08
8.6538e-07
-2.42007e-08
-6.6819e-08
8.6538e-07
-4.64963e-08
-6.6221e-08
8.5561e-07
-6.45865e-08
-6.45865e-08
8.33955e-07
-7.55053e-08
-6.10058e-08
7.95482e-07
-5.46242e-08
7.3176e-07
-7.57159e-08
7.0407e-08
-6.19469e-08
6.74844e-07
-7.02509e-08
6.10058e-08
-7.0407e-08
7.47779e-07
4.43986e-08
-7.55053e-08
7.95482e-07
2.32666e-08
-7.8149e-08
8.23856e-07
-4.60784e-16
-7.9242e-08
8.37027e-07
-2.32666e-08
-7.9242e-08
8.37027e-07
-4.43986e-08
-7.8149e-08
8.23856e-07
-6.10058e-08
-7.55053e-08
7.95482e-07
-7.0407e-08
-7.0407e-08
7.47779e-07
-6.19469e-08
6.74844e-07
-7.02509e-08
6.19469e-08
5.95703e-07
-6.13327e-08
-6.13327e-08
5.46242e-08
6.74844e-07
-7.02509e-08
4.02474e-08
7.3176e-07
-7.57159e-08
2.12751e-08
7.67767e-07
-7.90158e-08
-1.63655e-16
7.85094e-07
-8.04667e-08
-2.12751e-08
7.85094e-07
-8.04667e-08
-4.02474e-08
7.67767e-07
-7.90158e-08
-5.46242e-08
7.3176e-07
-7.57159e-08
-6.19469e-08
6.74844e-07
-7.02509e-08
5.95703e-07
-6.13327e-08
-6.13327e-08
3.5712e-08
3.5712e-08
5.92297e-07
-3.40089e-08
-3.40089e-08
3.23055e-08
4.18503e-08
6.76093e-07
-3.96929e-08
2.42936e-08
4.60851e-08
7.37446e-07
-4.37596e-08
1.30072e-08
4.86146e-08
7.76799e-07
-4.63603e-08
1.22731e-16
4.97595e-08
7.95891e-07
-4.75498e-08
-1.30072e-08
4.97595e-08
7.95891e-07
-4.75498e-08
-2.42936e-08
4.86146e-08
7.76799e-07
-4.63603e-08
-3.23055e-08
4.60851e-08
7.37446e-07
-4.37596e-08
-3.5712e-08
4.18503e-08
6.76093e-07
-3.96929e-08
3.5712e-08
5.92297e-07
-3.40089e-08
-3.40089e-08
4.18503e-08
3.23055e-08
6.76093e-07
-3.96929e-08
3.75718e-08
3.75718e-08
7.56336e-07
2.80361e-08
4.10576e-08
8.10046e-07
1.49192e-08
4.3029e-08
8.42559e-07
3.49953e-16
4.38954e-08
8.57811e-07
-1.49192e-08
4.38954e-08
8.57811e-07
-2.80361e-08
4.3029e-08
8.42559e-07
-3.75718e-08
4.10576e-08
8.10046e-07
-4.18503e-08
3.75718e-08
7.56336e-07
3.23055e-08
6.76093e-07
-3.96929e-08
4.60851e-08
2.42936e-08
7.37446e-07
-4.37596e-08
4.10576e-08
2.80361e-08
8.10046e-07
3.04164e-08
3.04164e-08
8.55237e-07
1.61056e-08
3.17106e-08
8.81239e-07
1.43404e-16
3.22623e-08
8.93119e-07
-1.61056e-08
3.22623e-08
8.93119e-07
-3.04164e-08
3.17106e-08
8.81239e-07
-4.10576e-08
3.04164e-08
8.55237e-07
-4.60851e-08
2.80361e-08
8.10046e-07
2.42936e-08
7.37446e-07
-4.37596e-08
4.86146e-08
1.30072e-08
7.76799e-07
-4.63603e-08
4.3029e-08
1.49192e-08
8.42559e-07
3.17106e-08
1.61056e-08
8.81239e-07
1.67389e-08
1.67389e-08
9.02751e-07
2.08247e-16
1.70042e-08
9.12449e-07
-1.67389e-08
1.70042e-08
9.12449e-07
-3.17106e-08
1.67389e-08
9.02751e-07
-4.3029e-08
1.61056e-08
8.81239e-07
-4.86146e-08
1.49192e-08
8.42559e-07
1.30072e-08
7.76799e-07
-4.63603e-08
4.97595e-08
1.11706e-16
7.95891e-07
-4.75498e-08
4.38954e-08
3.17767e-16
8.57811e-07
3.22623e-08
-9.24409e-17
8.93119e-07
1.70042e-08
-1.69629e-16
9.12449e-07
3.21639e-16
1.07138e-16
9.21133e-07
-1.70042e-08
4.78714e-16
9.21133e-07
-3.22623e-08
2.66161e-16
9.12449e-07
-4.38954e-08
1.87292e-16
8.93119e-07
-4.97595e-08
-1.86359e-16
8.57811e-07
-3.4479e-16
7.95891e-07
-4.75498e-08
4.97595e-08
-1.30072e-08
7.95891e-07
-4.75498e-08
4.38954e-08
-1.49192e-08
8.57811e-07
3.22623e-08
-1.61056e-08
8.93119e-07
1.70042e-08
-1.67389e-08
9.12449e-07
5.95555e-16
-1.70042e-08
9.21133e-07
-1.70042e-08
-1.70042e-08
9.21133e-07
-3.22623e-08
-1.67389e-08
9.12449e-07
-4.38954e-08
-1.61056e-08
8.93119e-07
-4.97595e-08
-1.49192e-08
8.57811e-07
-1.30072e-08
7.95891e-07
-4.75498e-08
4.86146e-08
-2.42936e-08
7.76799e-07
-4.63603e-08
4.3029e-08
-2.80361e-08
8.42559e-07
3.17106e-08
-3.04164e-08
8.81239e-07
1.67389e-08
-3.17106e-08
9.02751e-07
9.30081e-16
-3.22623e-08
9.12449e-07
-1.67389e-08
-3.22623e-08
9.12449e-07
-3.17106e-08
-3.17106e-08
9.02751e-07
-4.3029e-08
-3.04164e-08
8.81239e-07
-4.86146e-08
-2.80361e-08
8.42559e-07
-2.42936e-08
7.76799e-07
-4.63603e-08
4.60851e-08
-3.23055e-08
7.37446e-07
-4.37596e-08
4.10576e-08
-3.75718e-08
8.10046e-07
3.04164e-08
-4.10576e-08
8.55237e-07
1.61056e-08
-4.3029e-08
8.81239e-07
5.73394e-16
-4.38954e-08
8.93119e-07
-1.61056e-08
-4.38954e-08
8.93119e-07
-3.04164e-08
-4.3029e-08
8.81239e-07
-4.10576e-08
-4.10576e-08
8.55237e-07
-4.60851e-08
-3.75718e-08
8.10046e-07
-3.23055e-08
7.37446e-07
-4.37596e-08
4.18503e-08
-3.5712e-08
6.76093e-07
-3.96929e-08
3.75718e-08
-4.18503e-08
7.56336e-07
2.80361e-08
-4.60851e-08
8.10046e-07
1.49192e-08
-4.86146e-08
8.42559e-07
-2.71196e-16
-4.97595e-08
8.57811e-07
-1.49192e-08
-4.97595e-08
8.57811e-07
-2.80361e-08
-4.86146e-08
8.42559e-07
-3.75718e-08
-4.60851e-08
8.10046e-07
-4.18503e-08
-4.18503e-08
7.56336e-07
-3.5712e-08
6.76093e-07
-3.96929e-08
3.5712e-08
5.92297e-07
-3.40089e-08
-3.40089e-08
3.23055e-08
6.76093e-07
-3.96929e-08
2.42936e-08
7.37446e-07
-4.37596e-08
1.30072e-08
7.76799e-07
-4.63603e-08
7.28302e-17
7.95891e-07
-4.75498e-08
-1.30072e-08
7.95891e-07
-4.75498e-08
-2.42936e-08
7.76799e-07
-4.63603e-08
-3.23055e-08
7.37446e-07
-4.37596e-08
-3.5712e-08
6.76093e-07
-3.96929e-08
5.92297e-07
-3.40089e-08
-3.40089e-08
1.71007e-08
1.71007e-08
5.89092e-07
-1.54984e-08
-1.54984e-08
1.60952e-08
2.10991e-08
6.74779e-07
-1.87794e-08
1.24654e-08
2.41743e-08
7.38271e-07
-2.13692e-08
6.79546e-09
2.61993e-08
7.79408e-07
-2.31384e-08
1.89689e-16
2.71761e-08
7.99497e-07
-2.39863e-08
-6.79546e-09
2.71761e-08
7.99497e-07
-2.39863e-08
-1.24654e-08
2.61993e-08
7.79408e-07
-2.31384e-08
-1.60952e-08
2.41743e-08
7.38271e-07
-2.13692e-08
-1.71007e-08
2.10991e-08
6.74779e-07
-1.87794e-08
1.71007e-08
5.89092e-07
-1.54984e-08
-1.54984e-08
2.10991e-08
1.60952e-08
6.74779e-07
-1.87794e-08
1.98876e-08
1.98876e-08
7.58759e-07
1.53615e-08
2.27391e-08
8.16007e-07
8.34615e-09
2.45609e-08
8.51213e-07
6.8018e-16
2.54311e-08
8.67902e-07
-8.34615e-09
2.54311e-08
8.67902e-07
-1.53615e-08
2.45609e-08
8.51213e-07
-1.98876e-08
2.27391e-08
8.16007e-07
-2.10991e-08
1.98876e-08
7.58759e-07
1.60952e-08
6.74779e-07
-1.87794e-08
2.41743e-08
1.24654e-08
7.38271e-07
-2.13692e-08
2.27391e-08
1.53615e-08
8.16007e-07
1.74963e-08
1.74963e-08
8.65723e-07
9.47429e-09
1.88323e-08
8.9499e-07
6.67824e-16
1.94624e-08
9.08562e-07
-9.47428e-09
1.94624e-08
9.08562e-07
-1.74963e-08
1.88323e-08
8.9499e-07
-2.27391e-08
1.74963e-08
8.65723e-07
-2.41743e-08
1.53615e-08
8.16007e-07
1.24654e-08
7.38271e-07
-2.13692e-08
2.61993e-08
6.79546e-09
7.79408e-07
-2.31384e-08
2.45609e-08
8.34615e-09
8.51213e-07
1.88323e-08
9.47429e-09
8.9499e-07
1.01735e-08
1.01735e-08
9.20068e-07
6.72784e-16
1.05007e-08
9.31584e-07
-1.01735e-08
1.05007e-08
9.31584e-07
-1.88323e-08
1.01735e-08
9.20068e-07
-2.45608e-08
9.47429e-09
8.9499e-07
-2.61993e-08
8.34615e-09
8.51213e-07
6.79546e-09
7.79408e-07
-2.31384e-08
2.71761e-08
1.60138e-16
7.99497e-07
-2.39863e-08
2.54311e-08
3.00591e-16
8.67902e-07
1.94624e-08
2.31457e-16
9.08562e-07
1.05007e-08
3.02003e-16
9.31584e-07
5.85183e-16
4.03419e-16
9.42134e-07
-1.05007e-08
5.07941e-16
9.42134e-07
-1.94624e-08
2.80756e-16
9.31584e-07
-2.54311e-08
1.1592e-16
9.08562e-07
-2.71761e-08
-1.87457e-16
8.67902e-07
-2.02117e-16
7.99497e-07
-2.39863e-08
2.71761e-08
-6.79546e-09
7.99497e-07
-2.39863e-08
2.54311e-08
-8.34615e-09
8.67902e-07
1.94624e-08
-9.47428e-09
9.08562e-07
1.05007e-08
-1.01735e-08
9.31584e-07
6.24706e-16
-1.05007e-08
9.42134e-07
-1.05007e-08
-1.05007e-08
9.42134e-07
-1.94624e-08
-1.01735e-08
9.31584e-07
-2.54311e-08
-9.47429e-09
9.08562e-07
-2.71761e-08
-8.34615e-09
8.67902e-07
-6.79546e-09
7.99497e-07
-2.39863e-08
2.61993e-08
-1.24654e-08
7.79408e-07
-2.31384e-08
2.45609e-08
-1.53615e-08
8.51213e-07
1.88323e-08
-1.74963e-08
8.9499e-07
1.01735e-08
-1.88323e-08
9.20068e-07
8.05523e-16
-1.94624e-08
9.31584e-07
-1.01735e-08
-1.94624e-08
9.31584e-07
-1.88323e-08
-1.88323e-08
9.20068e-07
-2.45609e-08
-1.74963e-08
8.9499e-07
-2.61993e-08
-1.53615e-08
8.51213e-07
-1.24654e-08
7.79408e-07
-2.31384e-08
2.41743e-08
-1.60952e-08
7.38271e-07
-2.13692e-08
2.27391e-08
-1.98876e-08
8.16007e-07
1.74963e-08
-2.27391e-08
8.65723e-07
9.47429e-09
-2.45608e-08
8.9499e-07
5.93808e-16
-2.54311e-08
9.08562e-07
-9.47429e-09
-2.54311e-08
9.08562e-07
-1.74963e-08
-2.45609e-08
8.9499e-07
-2.27391e-08
-2.27391e-08
8.65723e-07
-2.41743e-08
-1.98876e-08
8.16007e-07
-1.60952e-08
7.38271e-07
-2.13692e-08
2.10991e-08
-1.71007e-08
6.74779e-07
-1.87794e-08
1.98876e-08
-2.10991e-08
7.58759e-07
1.53615e-08
-2.41743e-08
8.16007e-07
8.34615e-09
-2.61993e-08
8.51213e-07
-1.40586e-16
-2.71761e-08
8.67902e-07
-8.34615e-09
-2.71761e-08
8.67902e-07
-1.53615e-08
-2.61993e-08
8.51213e-07
-1.98876e-08
-2.41743e-08
8.16007e-07
-2.10991e-08
-2.10991e-08
7.58759e-07
-1.71007e-08
6.74779e-07
-1.87794e-08
1.71007e-08
5.89092e-07
-1.54984e-08
-1.54984e-08
1.60952e-08
6.74779e-07
-1.87794e-08
1.24654e-08
7.38271e-07
-2.13692e-08
6.79546e-09
7.79408e-07
-2.31384e-08
1.47577e-16
7.99497e-07
-2.39863e-08
-6.79546e-09
7.99497e-07
-2.39863e-08
-1.24654e-08
7.79408e-07
-2.31384e-08
-1.60952e-08
7.38271e-07
-2.13692e-08
-1.71007e-08
6.74779e-07
-1.87794e-08
5.89092e-07
-1.54984e-08
-1.54984e-08
7.10833e-09
7.10833e-09
5.87116e-07
-6.12027e-09
-6.12027e-09
6.96827e-09
9.24168e-09
6.73354e-07
-7.67729e-09
5.56285e-09
1.10418e-08
7.37659e-07
-9.02404e-09
3.08897e-09
1.23162e-08
7.79563e-07
-9.9972e-09
3.44637e-16
1.29587e-08
8.00108e-07
-1.04816e-08
-3.08897e-09
1.29587e-08
8.00108e-07
-1.04816e-08
-5.56285e-09
1.23162e-08
7.79563e-07
-9.9972e-09
-6.96827e-09
1.10418e-08
7.37659e-07
-9.02404e-09
-7.10833e-09
9.24168e-09
6.73354e-07
-7.67729e-09
7.10833e-09
5.87116e-07
-6.12027e-09
-6.12027e-09
9.24168e-09
6.96827e-09
6.73354e-07
-7.67729e-09
9.18218e-09
9.18218e-09
7.58878e-07
7.36042e-09
1.10194e-08
8.17851e-07
4.08796e-09
1.22911e-08
8.5451e-07
4.6676e-16
1.29289e-08
8.7202e-07
-4.08796e-09
1.29289e-08
8.7202e-07
-7.36042e-09
1.22911e-08
8.5451e-07
-9.18218e-09
1.10194e-08
8.17851e-07
-9.24168e-09
9.18218e-09
7.58878e-07
6.96827e-09
6.73354e-07
-7.67729e-09
1.10418e-08
5.56285e-09
7.37659e-07
-9.02404e-09
1.10194e-08
7.36042e-09
8.17851e-07
8.82973e-09
8.82973e-09
8.70102e-07
4.89515e-09
9.82924e-09
9.01386e-07
3.48828e-16
1.03252e-08
9.16061e-07
-4.89515e-09
1.03252e-08
9.16061e-07
-8.82973e-09
9.82924e-09
9.01386e-07
-1.10194e-08
8.82973e-09
8.70102e-07
-1.10418e-08
7.36042e-09
8.17851e-07
5.56285e-09
7.37659e-07
-9.02404e-09
1.23162e-08
3.08897e-09
7.79563e-07
-9.9972e-09
1.22911e-08
4.08796e-09
8.5451e-07
9.82924e-09
4.89515e-09
9.01386e-07
5.43887e-09
5.43887e-09
9.28849e-07
5.19434e-16
5.70664e-09
9.41641e-07
-5.43887e-09
5.70664e-09
9.41641e-07
-9.82924e-09
5.43887e-09
9.28849e-07
-1.22911e-08
4.89515e-09
9.01386e-07
-1.23162e-08
4.08796e-09
8.5451e-07
3.08897e-09
7.79563e-07
-9.9972e-09
1.29587e-08
1.72381e-16
8.00108e-07
-1.04816e-08
1.29289e-08
1.28948e-16
8.7202e-07
1.03252e-08
1.41927e-16
9.16061e-07
5.70664e-09
3.17054e-16
9.41641e-07
5.93195e-16
4.9811e-16
9.53547e-07
-5.70664e-09
6.8861e-16
9.53547e-07
-1.03252e-08
8.14931e-16
9.41641e-07
-1.29289e-08
4.89916e-16
9.16061e-07
-1.29587e-08
6.59968e-17
8.7202e-07
-1.98053e-17
8.00108e-07
-1.04816e-08
1.29587e-08
-3.08897e-09
8.00108e-07
-1.04816e-08
1.29289e-08
-4.08796e-09
8.7202e-07
1.03252e-08
-4.89515e-09
9.16061e-07
5.70664e-09
-5.43887e-09
9.41641e-07
7.62181e-16
-5.70664e-09
9.53547e-07
-5.70664e-09
-5.70664e-09
9.53547e-07
-1.03252e-08
-5.43887e-09
9.41641e-07
-1.29289e-08
-4.89515e-09
9.16061e-07
-1.29587e-08
-4.08796e-09
8.7202e-07
-3.08897e-09
8.00108e-07
-1.04816e-08
1.23162e-08
-5.56285e-09
7.79563e-07
-9.9972e-09
1.22911e-08
-7.36042e-09
8.5451e-07
9.82924e-09
-8.82973e-09
9.01386e-07
5.43887e-09
-9.82924e-09
9.28849e-07
8.82376e-16
-1.03252e-08
9.41641e-07
-5.43887e-09
-1.03252e-08
9.41641e-07
-9.82924e-09
-9.82924e-09
9.28849e-07
-1.22911e-08
-8.82973e-09
9.01386e-07
-1.23162e-08
-7.36042e-09
8.5451e-07
-5.56286e-09
7.79563e-07
-9.9972e-09
1.10418e-08
-6.96827e-09
7.37659e-07
-9.02404e-09
1.10194e-08
-9.18218e-09
8.17851e-07
8.82973e-09
-1.10194e-08
8.70102e-07
4.89515e-09
-1.22911e-08
9.01386e-07
6.44347e-16
-1.29289e-08
9.16061e-07
-4.89515e-09
-1.29289e-08
9.16061e-07
-8.82973e-09
-1.22911e-08
9.01386e-07
-1.10194e-08
-1.10194e-08
8.70102e-07
-1.10418e-08
-9.18218e-09
8.17851e-07
-6.96827e-09
7.37659e-07
-9.02404e-09
9.24168e-09
-7.10833e-09
6.73354e-07
-7.67729e-09
9.18218e-09
-9.24168e-09
7.58878e-07
7.36042e-09
-1.10418e-08
8.17851e-07
4.08796e-09
-1.23162e-08
8.5451e-07
-1.30533e-17
-1.29587e-08
8.7202e-07
-4.08796e-09
-1.29587e-08
8.7202e-07
-7.36042e-09
-1.23162e-08
8.5451e-07
-9.18218e-09
-1.10418e-08
8.17851e-07
-9.24168e-09
-9.24169e-09
7.58878e-07
-7.10833e-09
6.73354e-07
-7.67729e-09
7.10833e-09
5.87116e-07
-6.12027e-09
-6.12027e-09
6.96827e-09
6.73354e-07
-7.67729e-09
5.56285e-09
7.37659e-07
-9.02404e-09
3.08897e-09
7.79563e-07
-9.9972e-09
2.82402e-17
8.00108e-07
-1.04816e-08
-3.08897e-09
8.00108e-07
-1.04816e-08
-5.56285e-09
7.79563e-07
-9.9972e-09
-6.96827e-09
7.37659e-07
-9.02404e-09
-7.10833e-09
6.73354e-07
-7.67729e-09
5.87116e-07
-6.12027e-09
-6.12027e-09
2.59654e-09
2.59654e-09
5.86087e-07
-2.0821e-09
-2.0821e-09
2.68128e-09
3.60014e-09
6.7241e-07
-2.74e-09
2.22082e-09
4.51202e-09
7.36964e-07
-3.35662e-09
1.26004e-09
5.19306e-09
7.79153e-07
-3.82202e-09
2.55717e-16
5.54775e-09
7.99882e-07
-4.06126e-09
-1.26004e-09
5.54775e-09
7.99882e-07
-4.06126e-09
-2.22082e-09
5.19306e-09
7.79153e-07
-3.82202e-09
-2.68128e-09
4.51202e-09
7.36964e-07
-3.35661e-09
-2.59654e-09
3.60014e-09
6.7241e-07
-2.74e-09
2.59654e-09
5.86087e-07
-2.0821e-09
-2.0821e-09
3.60014e-09
2.68128e-09
6.7241e-07
-2.74e-09
3.80545e-09
3.80545e-09
7.58467e-07
3.17918e-09
4.80977e-09
8.1818e-07
1.80796e-09
5.54464e-09
8.5553e-07
4.44304e-16
5.92518e-09
8.7345e-07
-1.80796e-09
5.92518e-09
8.7345e-07
-3.17918e-09
5.54464e-09
8.5553e-07
-3.80544e-09
4.80977e-09
8.1818e-07
-3.60014e-09
3.80545e-09
7.58467e-07
2.68128e-09
6.7241e-07
-2.74e-09
4.51202e-09
2.22082e-09
7.36964e-07
-3.35662e-09
4.80977e-09
3.17918e-09
8.1818e-07
4.02294e-09
4.02294e-09
8.71676e-07
2.28451e-09
4.62946e-09
9.0404e-07
3.80853e-16
4.93996e-09
9.19331e-07
-2.28451e-09
4.93996e-09
9.19331e-07
-4.02294e-09
4.62946e-09
9.0404e-07
-4.80977e-09
4.02294e-09
8.71676e-07
-4.51202e-09
3.17918e-09
8.1818e-07
2.22082e-09
7.36964e-07
-3.35662e-09
5.19306e-09
1.26004e-09
7.79153e-07
-3.82202e-09
5.54464e-09
1.80796e-09
8.5553e-07
4.62946e-09
2.28451e-09
9.0404e-07
2.62332e-09
2.62332e-09
9.32861e-07
4.59396e-16
2.79534e-09
9.46409e-07
-2.62332e-09
2.79534e-09
9.46409e-07
-4.62946e-09
2.62332e-09
9.32861e-07
-5.54464e-09