/*--------------------------------*- C++ -*----------------------------------*\
| =========                 |                                                 |
| \\      /  F ield         | OpenFOAM: The Open Source CFD Toolbox           |
|  \\    /   O peration     | Version:  2412                                  |
|   \\  /    A nd           | Website:  www.openfoam.com                      |
|    \\/     M anipulation  |                                                 |
\*---------------------------------------------------------------------------*/
FoamFile
{
    version     2.0;
    format      ascii;
    arch        "LSB;label=32;scalar=64";
    class       volVectorField;
    location    "9.5";
    object      U;
}
// * * * * * * * * * * * * * * * * * * * * * * * * * * * * * * * * * * * * * //

dimensions      [0 1 -1 0 0 0 0];

internalField   nonuniform List<vector> 
15000
(
(0.00119938 0.00119938 0.010379)
(0.000885584 0.0011197 0.0103266)
(0.000603192 0.00109187 0.0102837)
(0.000354129 0.00106506 0.010256)
(0.000116315 0.0010528 0.0102432)
(-0.000116315 0.0010528 0.0102432)
(-0.000354129 0.00106506 0.010256)
(-0.000603192 0.00109187 0.0102837)
(-0.000885584 0.0011197 0.0103266)
(-0.00119938 0.00119938 0.010379)
(0.0011197 0.000885584 0.0103266)
(0.000832913 0.000832913 0.0102608)
(0.000570229 0.000795598 0.0102191)
(0.000332822 0.000769562 0.0101973)
(0.000109256 0.000757105 0.0101883)
(-0.000109256 0.000757105 0.0101883)
(-0.000332822 0.000769562 0.0101973)
(-0.000570229 0.000795598 0.0102191)
(-0.000832913 0.000832913 0.0102608)
(-0.0011197 0.000885584 0.0103266)
(0.00109187 0.000603192 0.0102837)
(0.000795598 0.000570229 0.0102191)
(0.000541248 0.000541248 0.0101861)
(0.000314453 0.000520666 0.010171)
(0.000103068 0.000510458 0.0101652)
(-0.000103068 0.000510458 0.0101652)
(-0.000314453 0.000520666 0.010171)
(-0.000541248 0.000541248 0.0101861)
(-0.000795598 0.000570229 0.0102191)
(-0.00109187 0.000603192 0.0102837)
(0.00106506 0.000354129 0.010256)
(0.000769562 0.000332822 0.0101973)
(0.000520666 0.000314453 0.010171)
(0.000301371 0.000301371 0.0101599)
(9.86292e-05 0.000294793 0.0101556)
(-9.86292e-05 0.000294793 0.0101556)
(-0.000301371 0.000301371 0.0101599)
(-0.000520666 0.000314453 0.010171)
(-0.000769562 0.000332822 0.0101973)
(-0.00106506 0.000354129 0.010256)
(0.0010528 0.000116315 0.0102432)
(0.000757105 0.000109256 0.0101883)
(0.000510458 0.000103068 0.0101652)
(0.000294793 9.86292e-05 0.0101556)
(9.63842e-05 9.63842e-05 0.0101518)
(-9.63842e-05 9.63842e-05 0.0101518)
(-0.000294793 9.86292e-05 0.0101556)
(-0.000510458 0.000103068 0.0101652)
(-0.000757105 0.000109256 0.0101883)
(-0.0010528 0.000116315 0.0102432)
(0.0010528 -0.000116315 0.0102432)
(0.000757105 -0.000109256 0.0101883)
(0.000510458 -0.000103068 0.0101652)
(0.000294793 -9.86292e-05 0.0101556)
(9.63842e-05 -9.63842e-05 0.0101518)
(-9.63842e-05 -9.63842e-05 0.0101518)
(-0.000294793 -9.86292e-05 0.0101556)
(-0.000510458 -0.000103068 0.0101652)
(-0.000757105 -0.000109256 0.0101883)
(-0.0010528 -0.000116315 0.0102432)
(0.00106506 -0.000354129 0.010256)
(0.000769562 -0.000332822 0.0101973)
(0.000520666 -0.000314453 0.010171)
(0.000301371 -0.000301371 0.0101599)
(9.86292e-05 -0.000294793 0.0101556)
(-9.86292e-05 -0.000294793 0.0101556)
(-0.000301371 -0.000301371 0.0101599)
(-0.000520666 -0.000314453 0.010171)
(-0.000769562 -0.000332822 0.0101973)
(-0.00106506 -0.000354129 0.010256)
(0.00109187 -0.000603192 0.0102837)
(0.000795598 -0.000570229 0.0102191)
(0.000541248 -0.000541248 0.0101861)
(0.000314453 -0.000520666 0.010171)
(0.000103068 -0.000510458 0.0101652)
(-0.000103068 -0.000510458 0.0101652)
(-0.000314453 -0.000520666 0.010171)
(-0.000541248 -0.000541248 0.0101861)
(-0.000795598 -0.000570229 0.0102191)
(-0.00109187 -0.000603192 0.0102837)
(0.0011197 -0.000885584 0.0103266)
(0.000832913 -0.000832913 0.0102608)
(0.000570229 -0.000795598 0.0102191)
(0.000332822 -0.000769562 0.0101973)
(0.000109256 -0.000757105 0.0101883)
(-0.000109256 -0.000757105 0.0101883)
(-0.000332822 -0.000769562 0.0101973)
(-0.000570229 -0.000795598 0.0102191)
(-0.000832913 -0.000832913 0.0102608)
(-0.0011197 -0.000885584 0.0103266)
(0.00119938 -0.00119938 0.010379)
(0.000885584 -0.0011197 0.0103266)
(0.000603192 -0.00109187 0.0102837)
(0.000354129 -0.00106506 0.010256)
(0.000116315 -0.0010528 0.0102432)
(-0.000116315 -0.0010528 0.0102432)
(-0.000354129 -0.00106506 0.010256)
(-0.000603192 -0.00109187 0.0102837)
(-0.000885584 -0.0011197 0.0103266)
(-0.00119938 -0.00119938 0.010379)
(0.000829875 0.000829875 0.0126957)
(0.000658528 0.000879572 0.0126609)
(0.000469796 0.000908377 0.0125623)
(0.000281277 0.000919305 0.0124681)
(9.31744e-05 0.000923965 0.0124149)
(-9.31744e-05 0.000923965 0.0124149)
(-0.000281277 0.000919305 0.0124681)
(-0.000469796 0.000908377 0.0125623)
(-0.000658528 0.000879572 0.0126609)
(-0.000829875 0.000829875 0.0126957)
(0.000879572 0.000658528 0.0126609)
(0.000683902 0.000683902 0.0124887)
(0.000479725 0.000690355 0.0122966)
(0.000282901 0.000687908 0.012153)
(9.32271e-05 0.00068563 0.0120792)
(-9.32271e-05 0.00068563 0.0120792)
(-0.000282901 0.000687908 0.012153)
(-0.000479725 0.000690355 0.0122966)
(-0.000683902 0.000683902 0.0124887)
(-0.000879572 0.000658528 0.0126609)
(0.000908377 0.000469796 0.0125623)
(0.000690355 0.000479725 0.0122966)
(0.000476924 0.000476924 0.0120588)
(0.000278318 0.000470627 0.0118968)
(9.13361e-05 0.000466682 0.0118169)
(-9.13361e-05 0.000466682 0.0118169)
(-0.000278318 0.000470627 0.0118968)
(-0.000476924 0.000476924 0.0120588)
(-0.000690355 0.000479725 0.0122966)
(-0.000908377 0.000469796 0.0125623)
(0.000919305 0.000281277 0.0124681)
(0.000687908 0.000282901 0.012153)
(0.000470627 0.000278318 0.0118968)
(0.000273031 0.000273031 0.0117301)
(8.93855e-05 0.000269975 0.0116494)
(-8.93855e-05 0.000269975 0.0116494)
(-0.000273031 0.000273031 0.0117301)
(-0.000470627 0.000278318 0.0118968)
(-0.000687908 0.000282901 0.012153)
(-0.000919305 0.000281277 0.0124681)
(0.000923965 9.31744e-05 0.0124149)
(0.00068563 9.32271e-05 0.0120792)
(0.000466682 9.13361e-05 0.0118169)
(0.000269975 8.93855e-05 0.0116494)
(8.82834e-05 8.82834e-05 0.0115689)
(-8.82834e-05 8.82834e-05 0.0115689)
(-0.000269975 8.93855e-05 0.0116494)
(-0.000466682 9.13361e-05 0.0118169)
(-0.00068563 9.32271e-05 0.0120792)
(-0.000923965 9.31744e-05 0.0124149)
(0.000923965 -9.31744e-05 0.0124149)
(0.00068563 -9.32271e-05 0.0120792)
(0.000466682 -9.13361e-05 0.0118169)
(0.000269975 -8.93855e-05 0.0116494)
(8.82834e-05 -8.82834e-05 0.0115689)
(-8.82834e-05 -8.82834e-05 0.0115689)
(-0.000269975 -8.93855e-05 0.0116494)
(-0.000466682 -9.13361e-05 0.0118169)
(-0.00068563 -9.32271e-05 0.0120792)
(-0.000923965 -9.31744e-05 0.0124149)
(0.000919305 -0.000281277 0.0124681)
(0.000687908 -0.000282901 0.012153)
(0.000470627 -0.000278318 0.0118968)
(0.000273031 -0.000273031 0.0117301)
(8.93855e-05 -0.000269975 0.0116494)
(-8.93855e-05 -0.000269975 0.0116494)
(-0.000273031 -0.000273031 0.0117301)
(-0.000470627 -0.000278318 0.0118968)
(-0.000687908 -0.000282901 0.012153)
(-0.000919305 -0.000281277 0.0124681)
(0.000908377 -0.000469796 0.0125623)
(0.000690355 -0.000479725 0.0122966)
(0.000476924 -0.000476924 0.0120588)
(0.000278318 -0.000470627 0.0118968)
(9.13361e-05 -0.000466682 0.0118169)
(-9.13361e-05 -0.000466682 0.0118169)
(-0.000278318 -0.000470627 0.0118968)
(-0.000476924 -0.000476924 0.0120588)
(-0.000690355 -0.000479725 0.0122966)
(-0.000908377 -0.000469796 0.0125623)
(0.000879572 -0.000658528 0.0126609)
(0.000683902 -0.000683902 0.0124887)
(0.000479725 -0.000690355 0.0122966)
(0.000282901 -0.000687908 0.012153)
(9.32271e-05 -0.00068563 0.0120792)
(-9.32271e-05 -0.00068563 0.0120792)
(-0.000282901 -0.000687908 0.012153)
(-0.000479725 -0.000690355 0.0122966)
(-0.000683902 -0.000683902 0.0124887)
(-0.000879572 -0.000658528 0.0126609)
(0.000829875 -0.000829875 0.0126957)
(0.000658528 -0.000879572 0.0126609)
(0.000469796 -0.000908377 0.0125623)
(0.000281277 -0.000919305 0.0124681)
(9.31744e-05 -0.000923965 0.0124149)
(-9.31744e-05 -0.000923965 0.0124149)
(-0.000281277 -0.000919305 0.0124681)
(-0.000469796 -0.000908377 0.0125623)
(-0.000658528 -0.000879572 0.0126609)
(-0.000829875 -0.000829875 0.0126957)
(0.000670552 0.000670552 0.0125246)
(0.000563126 0.000761268 0.0128285)
(0.000425667 0.000822372 0.0129423)
(0.000263632 0.00085763 0.012965)
(8.88666e-05 0.000874003 0.012962)
(-8.88666e-05 0.000874003 0.012962)
(-0.000263632 0.00085763 0.012965)
(-0.000425667 0.000822372 0.0129423)
(-0.000563126 0.000761268 0.0128285)
(-0.000670552 0.000670552 0.0125246)
(0.000761268 0.000563126 0.0128285)
(0.000635573 0.000635573 0.0129623)
(0.000470491 0.000676864 0.0129258)
(0.000287273 0.000696894 0.0128511)
(9.62986e-05 0.000705055 0.0128018)
(-9.62986e-05 0.000705055 0.0128018)
(-0.000287273 0.000696894 0.0128511)
(-0.000470491 0.000676864 0.0129258)
(-0.000635573 0.000635573 0.0129623)
(-0.000761268 0.000563126 0.0128285)
(0.000822372 0.000425667 0.0129423)
(0.000676864 0.000470491 0.0129258)
(0.000493587 0.000493587 0.012785)
(0.00029807 0.000503097 0.0126514)
(9.94466e-05 0.00050633 0.0125765)
(-9.94466e-05 0.00050633 0.0125765)
(-0.00029807 0.000503097 0.0126514)
(-0.000493587 0.000493587 0.012785)
(-0.000676864 0.000470491 0.0129258)
(-0.000822372 0.000425667 0.0129423)
(0.00085763 0.000263632 0.012965)
(0.000696894 0.000287273 0.0128511)
(0.000503097 0.00029807 0.0126514)
(0.000301802 0.000301802 0.0124884)
(0.000100404 0.000302771 0.0124021)
(-0.000100404 0.000302771 0.0124021)
(-0.000301802 0.000301802 0.0124884)
(-0.000503097 0.00029807 0.0126514)
(-0.000696894 0.000287273 0.0128511)
(-0.00085763 0.000263632 0.012965)
(0.000874003 8.88666e-05 0.012962)
(0.000705055 9.62986e-05 0.0128018)
(0.00050633 9.94466e-05 0.0125765)
(0.000302771 0.000100404 0.0124021)
(0.000100589 0.000100589 0.0123118)
(-0.000100589 0.000100589 0.0123118)
(-0.000302771 0.000100404 0.0124021)
(-0.00050633 9.94466e-05 0.0125765)
(-0.000705055 9.62986e-05 0.0128018)
(-0.000874003 8.88666e-05 0.012962)
(0.000874003 -8.88666e-05 0.012962)
(0.000705055 -9.62986e-05 0.0128018)
(0.00050633 -9.94466e-05 0.0125765)
(0.000302771 -0.000100404 0.0124021)
(0.000100589 -0.000100589 0.0123118)
(-0.000100589 -0.000100589 0.0123118)
(-0.000302771 -0.000100404 0.0124021)
(-0.00050633 -9.94466e-05 0.0125765)
(-0.000705055 -9.62986e-05 0.0128018)
(-0.000874003 -8.88666e-05 0.012962)
(0.00085763 -0.000263632 0.012965)
(0.000696894 -0.000287273 0.0128511)
(0.000503097 -0.00029807 0.0126514)
(0.000301802 -0.000301802 0.0124884)
(0.000100404 -0.000302771 0.0124021)
(-0.000100404 -0.000302771 0.0124021)
(-0.000301802 -0.000301802 0.0124884)
(-0.000503097 -0.00029807 0.0126514)
(-0.000696894 -0.000287273 0.0128511)
(-0.00085763 -0.000263632 0.012965)
(0.000822372 -0.000425667 0.0129423)
(0.000676864 -0.000470491 0.0129258)
(0.000493587 -0.000493587 0.012785)
(0.00029807 -0.000503097 0.0126514)
(9.94466e-05 -0.00050633 0.0125765)
(-9.94466e-05 -0.00050633 0.0125765)
(-0.00029807 -0.000503097 0.0126514)
(-0.000493587 -0.000493587 0.012785)
(-0.000676864 -0.000470491 0.0129258)
(-0.000822372 -0.000425667 0.0129423)
(0.000761268 -0.000563126 0.0128285)
(0.000635573 -0.000635573 0.0129623)
(0.000470491 -0.000676864 0.0129258)
(0.000287273 -0.000696894 0.0128511)
(9.62986e-05 -0.000705055 0.0128018)
(-9.62986e-05 -0.000705055 0.0128018)
(-0.000287273 -0.000696894 0.0128511)
(-0.000470491 -0.000676864 0.0129258)
(-0.000635573 -0.000635573 0.0129623)
(-0.000761268 -0.000563126 0.0128285)
(0.000670552 -0.000670552 0.0125246)
(0.000563126 -0.000761268 0.0128285)
(0.000425667 -0.000822372 0.0129423)
(0.000263632 -0.00085763 0.012965)
(8.88666e-05 -0.000874003 0.012962)
(-8.88666e-05 -0.000874003 0.012962)
(-0.000263632 -0.00085763 0.012965)
(-0.000425667 -0.000822372 0.0129423)
(-0.000563126 -0.000761268 0.0128285)
(-0.000670552 -0.000670552 0.0125246)
(0.000374598 0.000374598 0.0127555)
(0.00032672 0.000455274 0.0132605)
(0.000258407 0.000514056 0.0135208)
(0.000164031 0.000552382 0.0136338)
(5.60046e-05 0.000570759 0.0136727)
(-5.60045e-05 0.000570759 0.0136727)
(-0.000164031 0.000552382 0.0136338)
(-0.000258407 0.000514056 0.0135208)
(-0.00032672 0.000455274 0.0132605)
(-0.000374598 0.000374598 0.0127555)
(0.000455274 0.00032672 0.0132605)
(0.000399673 0.000399673 0.0136207)
(0.000308508 0.00044887 0.0137217)
(0.000193377 0.000478011 0.0137198)
(6.56657e-05 0.000491433 0.0137005)
(-6.56657e-05 0.000491433 0.0137005)
(-0.000193377 0.000478011 0.0137198)
(-0.000308508 0.00044887 0.0137217)
(-0.000399673 0.000399673 0.0136207)
(-0.000455274 0.00032672 0.0132605)
(0.000514056 0.000258407 0.0135208)
(0.00044887 0.000308508 0.0137217)
(0.000341802 0.000341802 0.0136922)
(0.000212197 0.000360787 0.0136066)
(7.17608e-05 0.000369299 0.0135482)
(-7.17608e-05 0.000369299 0.0135482)
(-0.000212197 0.000360787 0.0136066)
(-0.000341802 0.000341802 0.0136922)
(-0.00044887 0.000308508 0.0137217)
(-0.000514056 0.000258407 0.0135208)
(0.000552382 0.000164031 0.0136338)
(0.000478011 0.000193377 0.0137198)
(0.000360787 0.000212197 0.0136066)
(0.000222724 0.000222724 0.0134729)
(7.51427e-05 0.000227379 0.0133937)
(-7.51427e-05 0.000227379 0.0133937)
(-0.000222724 0.000222724 0.0134729)
(-0.000360787 0.000212197 0.0136066)
(-0.000478011 0.000193377 0.0137198)
(-0.000552382 0.000164031 0.0136338)
(0.000570759 5.60045e-05 0.0136727)
(0.000491433 6.56657e-05 0.0137005)
(0.000369299 7.17608e-05 0.0135482)
(0.000227379 7.51427e-05 0.0133937)
(7.66287e-05 7.66287e-05 0.0133061)
(-7.66287e-05 7.66287e-05 0.0133061)
(-0.000227379 7.51427e-05 0.0133937)
(-0.000369299 7.17608e-05 0.0135482)
(-0.000491433 6.56657e-05 0.0137005)
(-0.000570759 5.60045e-05 0.0136727)
(0.000570759 -5.60046e-05 0.0136727)
(0.000491433 -6.56657e-05 0.0137005)
(0.000369299 -7.17608e-05 0.0135482)
(0.000227379 -7.51427e-05 0.0133937)
(7.66287e-05 -7.66287e-05 0.0133061)
(-7.66287e-05 -7.66287e-05 0.0133061)
(-0.000227379 -7.51427e-05 0.0133937)
(-0.000369299 -7.17608e-05 0.0135482)
(-0.000491433 -6.56657e-05 0.0137005)
(-0.000570759 -5.60046e-05 0.0136727)
(0.000552382 -0.000164031 0.0136338)
(0.000478011 -0.000193377 0.0137198)
(0.000360787 -0.000212197 0.0136066)
(0.000222724 -0.000222724 0.0134729)
(7.51427e-05 -0.000227379 0.0133937)
(-7.51427e-05 -0.000227379 0.0133937)
(-0.000222724 -0.000222724 0.0134729)
(-0.000360787 -0.000212197 0.0136066)
(-0.000478011 -0.000193377 0.0137198)
(-0.000552382 -0.000164031 0.0136338)
(0.000514056 -0.000258407 0.0135208)
(0.00044887 -0.000308508 0.0137217)
(0.000341802 -0.000341802 0.0136922)
(0.000212197 -0.000360787 0.0136066)
(7.17608e-05 -0.000369299 0.0135482)
(-7.17608e-05 -0.000369299 0.0135482)
(-0.000212197 -0.000360787 0.0136066)
(-0.000341802 -0.000341802 0.0136922)
(-0.00044887 -0.000308508 0.0137217)
(-0.000514056 -0.000258407 0.0135208)
(0.000455274 -0.00032672 0.0132605)
(0.000399673 -0.000399673 0.0136207)
(0.000308508 -0.00044887 0.0137217)
(0.000193377 -0.000478011 0.0137198)
(6.56657e-05 -0.000491433 0.0137005)
(-6.56657e-05 -0.000491433 0.0137005)
(-0.000193377 -0.000478011 0.0137198)
(-0.000308508 -0.00044887 0.0137217)
(-0.000399673 -0.000399673 0.0136207)
(-0.000455274 -0.00032672 0.0132605)
(0.000374598 -0.000374598 0.0127555)
(0.00032672 -0.000455274 0.0132605)
(0.000258407 -0.000514056 0.0135208)
(0.000164031 -0.000552382 0.0136338)
(5.60045e-05 -0.000570759 0.0136727)
(-5.60046e-05 -0.000570759 0.0136727)
(-0.000164031 -0.000552382 0.0136338)
(-0.000258407 -0.000514056 0.0135208)
(-0.00032672 -0.000455274 0.0132605)
(-0.000374598 -0.000374598 0.0127555)
(0.000214413 0.000214413 0.012646)
(0.00019066 0.000266326 0.0132898)
(0.000155277 0.000307657 0.0136622)
(0.000100215 0.000336217 0.0138508)
(3.45175e-05 0.000350296 0.0139269)
(-3.45175e-05 0.000350296 0.0139269)
(-0.000100215 0.000336217 0.0138508)
(-0.000155277 0.000307657 0.0136622)
(-0.00019066 0.000266326 0.0132898)
(-0.000214413 0.000214413 0.012646)
(0.000266326 0.00019066 0.0132898)
(0.000242763 0.000242763 0.0138291)
(0.000193555 0.000281228 0.0140566)
(0.00012382 0.000306034 0.0141323)
(4.24745e-05 0.000318035 0.0141494)
(-4.24745e-05 0.000318035 0.0141494)
(-0.00012382 0.000306034 0.0141323)
(-0.000193555 0.000281228 0.0140566)
(-0.000242763 0.000242763 0.0138291)
(-0.000266326 0.00019066 0.0132898)
(0.000307657 0.000155277 0.0136622)
(0.000281228 0.000193555 0.0140566)
(0.000221949 0.000221949 0.0141518)
(0.000141 0.000239881 0.0141372)
(4.82249e-05 0.000248455 0.0141105)
(-4.82249e-05 0.000248455 0.0141105)
(-0.000141 0.000239881 0.0141372)
(-0.000221949 0.000221949 0.0141518)
(-0.000281228 0.000193555 0.0140566)
(-0.000307657 0.000155277 0.0136622)
(0.000336217 0.000100215 0.0138508)
(0.000306034 0.00012382 0.0141323)
(0.000239881 0.000141 0.0141372)
(0.000151731 0.000151731 0.0140673)
(5.18022e-05 0.000156828 0.0140158)
(-5.18022e-05 0.000156828 0.0140158)
(-0.000151731 0.000151731 0.0140673)
(-0.000239881 0.000141 0.0141372)
(-0.000306034 0.00012382 0.0141323)
(-0.000336217 0.000100215 0.0138508)
(0.000350296 3.45175e-05 0.0139269)
(0.000318035 4.24745e-05 0.0141494)
(0.000248455 4.82249e-05 0.0141105)
(0.000156828 5.18022e-05 0.0140158)
(5.34959e-05 5.34959e-05 0.0139538)
(-5.34959e-05 5.34959e-05 0.0139538)
(-0.000156828 5.18022e-05 0.0140158)
(-0.000248455 4.82249e-05 0.0141105)
(-0.000318035 4.24745e-05 0.0141494)
(-0.000350296 3.45175e-05 0.0139269)
(0.000350296 -3.45175e-05 0.0139269)
(0.000318035 -4.24745e-05 0.0141494)
(0.000248455 -4.82249e-05 0.0141105)
(0.000156828 -5.18022e-05 0.0140158)
(5.34959e-05 -5.34959e-05 0.0139538)
(-5.34959e-05 -5.34959e-05 0.0139538)
(-0.000156828 -5.18022e-05 0.0140158)
(-0.000248455 -4.82249e-05 0.0141105)
(-0.000318035 -4.24745e-05 0.0141494)
(-0.000350296 -3.45176e-05 0.0139269)
(0.000336217 -0.000100215 0.0138508)
(0.000306034 -0.00012382 0.0141323)
(0.000239881 -0.000141 0.0141372)
(0.000151731 -0.000151731 0.0140673)
(5.18022e-05 -0.000156828 0.0140158)
(-5.18022e-05 -0.000156828 0.0140158)
(-0.000151731 -0.000151731 0.0140673)
(-0.000239881 -0.000141 0.0141372)
(-0.000306034 -0.00012382 0.0141323)
(-0.000336217 -0.000100215 0.0138508)
(0.000307657 -0.000155277 0.0136622)
(0.000281228 -0.000193555 0.0140566)
(0.000221949 -0.000221949 0.0141518)
(0.000141 -0.000239881 0.0141372)
(4.82249e-05 -0.000248455 0.0141105)
(-4.82249e-05 -0.000248455 0.0141105)
(-0.000141 -0.000239881 0.0141372)
(-0.000221949 -0.000221949 0.0141518)
(-0.000281228 -0.000193555 0.0140566)
(-0.000307657 -0.000155277 0.0136622)
(0.000266326 -0.00019066 0.0132898)
(0.000242763 -0.000242763 0.0138291)
(0.000193555 -0.000281228 0.0140566)
(0.00012382 -0.000306034 0.0141323)
(4.24745e-05 -0.000318035 0.0141494)
(-4.24745e-05 -0.000318035 0.0141494)
(-0.00012382 -0.000306034 0.0141323)
(-0.000193555 -0.000281228 0.0140566)
(-0.000242763 -0.000242763 0.0138291)
(-0.000266326 -0.00019066 0.0132898)
(0.000214413 -0.000214413 0.012646)
(0.00019066 -0.000266326 0.0132898)
(0.000155277 -0.000307657 0.0136622)
(0.000100215 -0.000336217 0.0138508)
(3.45175e-05 -0.000350296 0.0139269)
(-3.45175e-05 -0.000350296 0.0139269)
(-0.000100215 -0.000336217 0.0138508)
(-0.000155277 -0.000307657 0.0136622)
(-0.00019066 -0.000266326 0.0132898)
(-0.000214413 -0.000214413 0.012646)
(0.000100955 0.000100955 0.0125623)
(9.3065e-05 0.000131038 0.0132646)
(7.89637e-05 0.000156787 0.0136914)
(5.21566e-05 0.000175599 0.0139203)
(1.81846e-05 0.000185153 0.0140175)
(-1.81846e-05 0.000185153 0.0140175)
(-5.21566e-05 0.000175599 0.0139203)
(-7.89637e-05 0.000156787 0.0136914)
(-9.3065e-05 0.000131038 0.0132646)
(-0.000100955 0.000100955 0.0125623)
(0.000131038 9.3065e-05 0.0132646)
(0.000125959 0.000125959 0.0138963)
(0.000104938 0.000152504 0.0141989)
(6.90002e-05 0.000170958 0.0143261)
(2.39951e-05 0.000180283 0.0143689)
(-2.39951e-05 0.000180283 0.0143689)
(-6.90002e-05 0.000170958 0.0143261)
(-0.000104938 0.000152504 0.0141989)
(-0.000125959 0.000125959 0.0138963)
(-0.000131038 9.3065e-05 0.0132646)
(0.000156787 7.89637e-05 0.0136914)
(0.000152504 0.000104938 0.0141989)
(0.000126224 0.000126224 0.0143801)
(8.26371e-05 0.000140804 0.0144213)
(2.86816e-05 0.000148119 0.0144218)
(-2.86816e-05 0.000148119 0.0144218)
(-8.26371e-05 0.000140804 0.0144213)
(-0.000126224 0.000126224 0.0143801)
(-0.000152504 0.000104938 0.0141989)
(-0.000156787 7.89637e-05 0.0136914)
(0.000175599 5.21566e-05 0.0139203)
(0.000170958 6.90002e-05 0.0143261)
(0.000140804 8.26371e-05 0.0144213)
(9.18893e-05 9.18893e-05 0.0144084)
(3.18486e-05 9.65032e-05 0.0143841)
(-3.18486e-05 9.65032e-05 0.0143841)
(-9.18893e-05 9.18893e-05 0.0144084)
(-0.000140804 8.26371e-05 0.0144213)
(-0.000170958 6.90002e-05 0.0143261)
(-0.000175599 5.21566e-05 0.0139203)
(0.000185153 1.81846e-05 0.0140175)
(0.000180283 2.39951e-05 0.0143689)
(0.000148119 2.86816e-05 0.0144218)
(9.65032e-05 3.18486e-05 0.0143841)
(3.34232e-05 3.34232e-05 0.0143492)
(-3.34232e-05 3.34232e-05 0.0143492)
(-9.65032e-05 3.18486e-05 0.0143841)
(-0.000148119 2.86816e-05 0.0144218)
(-0.000180283 2.39951e-05 0.0143689)
(-0.000185153 1.81846e-05 0.0140175)
(0.000185153 -1.81846e-05 0.0140175)
(0.000180283 -2.39951e-05 0.0143689)
(0.000148119 -2.86816e-05 0.0144218)
(9.65032e-05 -3.18486e-05 0.0143841)
(3.34232e-05 -3.34232e-05 0.0143492)
(-3.34232e-05 -3.34232e-05 0.0143492)
(-9.65032e-05 -3.18486e-05 0.0143841)
(-0.000148119 -2.86816e-05 0.0144218)
(-0.000180283 -2.39951e-05 0.0143689)
(-0.000185153 -1.81846e-05 0.0140175)
(0.000175599 -5.21566e-05 0.0139203)
(0.000170958 -6.90002e-05 0.0143261)
(0.000140804 -8.26371e-05 0.0144213)
(9.18893e-05 -9.18893e-05 0.0144084)
(3.18486e-05 -9.65032e-05 0.0143841)
(-3.18486e-05 -9.65032e-05 0.0143841)
(-9.18893e-05 -9.18893e-05 0.0144084)
(-0.000140804 -8.26371e-05 0.0144213)
(-0.000170958 -6.90002e-05 0.0143261)
(-0.000175599 -5.21566e-05 0.0139203)
(0.000156787 -7.89637e-05 0.0136914)
(0.000152504 -0.000104938 0.0141989)
(0.000126224 -0.000126224 0.0143801)
(8.26371e-05 -0.000140804 0.0144213)
(2.86816e-05 -0.000148119 0.0144218)
(-2.86816e-05 -0.000148119 0.0144218)
(-8.26371e-05 -0.000140804 0.0144213)
(-0.000126224 -0.000126224 0.0143801)
(-0.000152504 -0.000104938 0.0141989)
(-0.000156787 -7.89637e-05 0.0136914)
(0.000131038 -9.3065e-05 0.0132646)
(0.000125959 -0.000125959 0.0138963)
(0.000104938 -0.000152504 0.0141989)
(6.90002e-05 -0.000170958 0.0143261)
(2.39951e-05 -0.000180283 0.0143689)
(-2.39951e-05 -0.000180283 0.0143689)
(-6.90002e-05 -0.000170958 0.0143261)
(-0.000104938 -0.000152504 0.0141989)
(-0.000125959 -0.000125959 0.0138963)
(-0.000131038 -9.3065e-05 0.0132646)
(0.000100955 -0.000100955 0.0125623)
(9.3065e-05 -0.000131038 0.0132646)
(7.89637e-05 -0.000156787 0.0136914)
(5.21566e-05 -0.000175599 0.0139203)
(1.81846e-05 -0.000185153 0.0140175)
(-1.81846e-05 -0.000185153 0.0140175)
(-5.21566e-05 -0.000175599 0.0139203)
(-7.89637e-05 -0.000156787 0.0136914)
(-9.3065e-05 -0.000131038 0.0132646)
(-0.000100955 -0.000100955 0.0125623)
(4.12204e-05 4.12204e-05 0.0125081)
(3.94886e-05 5.57795e-05 0.013233)
(3.49501e-05 6.92115e-05 0.0136845)
(2.36342e-05 7.95553e-05 0.0139336)
(8.34837e-06 8.49655e-05 0.014042)
(-8.34836e-06 8.49655e-05 0.014042)
(-2.36342e-05 7.95553e-05 0.0139336)
(-3.49501e-05 6.92115e-05 0.0136845)
(-3.94886e-05 5.57795e-05 0.013233)
(-4.12204e-05 4.12204e-05 0.0125081)
(5.57795e-05 3.94886e-05 0.013233)
(5.69099e-05 5.69099e-05 0.0139086)
(4.97389e-05 7.22116e-05 0.0142523)
(3.36722e-05 8.35602e-05 0.0144105)
(1.18832e-05 8.95065e-05 0.0144699)
(-1.18832e-05 8.95065e-05 0.0144699)
(-3.36722e-05 8.35602e-05 0.0144105)
(-4.97389e-05 7.22116e-05 0.0142523)
(-5.69099e-05 5.69099e-05 0.0139086)
(-5.57795e-05 3.94886e-05 0.013233)
(6.92115e-05 3.495e-05 0.0136845)
(7.22116e-05 4.97389e-05 0.0142523)
(6.29585e-05 6.29586e-05 0.0144869)
(4.25521e-05 7.26234e-05 0.0145668)
(1.49993e-05 7.76504e-05 0.0145872)
(-1.49992e-05 7.76504e-05 0.0145872)
(-4.25521e-05 7.26234e-05 0.0145668)
(-6.29585e-05 6.29586e-05 0.0144869)
(-7.22116e-05 4.97389e-05 0.0142523)
(-6.92115e-05 3.49501e-05 0.0136845)
(7.95553e-05 2.36342e-05 0.0139336)
(8.35602e-05 3.36722e-05 0.0144105)
(7.26234e-05 4.25521e-05 0.0145668)
(4.89742e-05 4.89742e-05 0.0145965)
(1.72417e-05 5.22905e-05 0.014594)
(-1.72417e-05 5.22906e-05 0.014594)
(-4.89742e-05 4.89742e-05 0.0145965)
(-7.26234e-05 4.25521e-05 0.0145668)
(-8.35602e-05 3.36722e-05 0.0144105)
(-7.95553e-05 2.36342e-05 0.0139336)
(8.49655e-05 8.34837e-06 0.014042)
(8.95065e-05 1.18832e-05 0.0144699)
(7.76504e-05 1.49993e-05 0.0145872)
(5.22906e-05 1.72417e-05 0.014594)
(1.83954e-05 1.83954e-05 0.0145815)
(-1.83954e-05 1.83954e-05 0.0145815)
(-5.22905e-05 1.72417e-05 0.014594)
(-7.76504e-05 1.49993e-05 0.0145872)
(-8.95065e-05 1.18832e-05 0.0144699)
(-8.49655e-05 8.34837e-06 0.014042)
(8.49655e-05 -8.34837e-06 0.014042)
(8.95065e-05 -1.18832e-05 0.0144699)
(7.76504e-05 -1.49993e-05 0.0145872)
(5.22906e-05 -1.72417e-05 0.014594)
(1.83954e-05 -1.83954e-05 0.0145815)
(-1.83954e-05 -1.83954e-05 0.0145815)
(-5.22905e-05 -1.72417e-05 0.014594)
(-7.76504e-05 -1.49992e-05 0.0145872)
(-8.95065e-05 -1.18832e-05 0.0144699)
(-8.49655e-05 -8.34837e-06 0.014042)
(7.95553e-05 -2.36342e-05 0.0139336)
(8.35602e-05 -3.36722e-05 0.0144105)
(7.26234e-05 -4.25521e-05 0.0145668)
(4.89742e-05 -4.89742e-05 0.0145965)
(1.72417e-05 -5.22905e-05 0.014594)
(-1.72417e-05 -5.22905e-05 0.014594)
(-4.89742e-05 -4.89742e-05 0.0145965)
(-7.26234e-05 -4.25521e-05 0.0145668)
(-8.35602e-05 -3.36722e-05 0.0144105)
(-7.95553e-05 -2.36342e-05 0.0139336)
(6.92115e-05 -3.49501e-05 0.0136845)
(7.22116e-05 -4.97389e-05 0.0142523)
(6.29586e-05 -6.29585e-05 0.0144869)
(4.25521e-05 -7.26234e-05 0.0145668)
(1.49993e-05 -7.76504e-05 0.0145872)
(-1.49992e-05 -7.76504e-05 0.0145872)
(-4.25521e-05 -7.26234e-05 0.0145668)
(-6.29585e-05 -6.29585e-05 0.0144869)
(-7.22116e-05 -4.97389e-05 0.0142523)
(-6.92115e-05 -3.495e-05 0.0136845)
(5.57795e-05 -3.94886e-05 0.013233)
(5.69099e-05 -5.69099e-05 0.0139086)
(4.97389e-05 -7.22116e-05 0.0142523)
(3.36722e-05 -8.35602e-05 0.0144105)
(1.18832e-05 -8.95065e-05 0.0144699)
(-1.18832e-05 -8.95065e-05 0.0144699)
(-3.36722e-05 -8.35602e-05 0.0144105)
(-4.97389e-05 -7.22116e-05 0.0142523)
(-5.69099e-05 -5.69099e-05 0.0139086)
(-5.57795e-05 -3.94886e-05 0.013233)
(4.12204e-05 -4.12204e-05 0.0125081)
(3.94886e-05 -5.57795e-05 0.013233)
(3.49501e-05 -6.92115e-05 0.0136845)
(2.36342e-05 -7.95553e-05 0.0139336)
(8.34837e-06 -8.49655e-05 0.014042)
(-8.34837e-06 -8.49654e-05 0.014042)
(-2.36342e-05 -7.95553e-05 0.0139336)
(-3.495e-05 -6.92115e-05 0.0136845)
(-3.94886e-05 -5.57795e-05 0.013233)
(-4.12204e-05 -4.12204e-05 0.0125081)
(1.46795e-05 1.46795e-05 0.0124771)
(1.48326e-05 2.09351e-05 0.0132081)
(1.38211e-05 2.71088e-05 0.0136685)
(9.61364e-06 3.20893e-05 0.013926)
(3.4492e-06 3.47667e-05 0.0140393)
(-3.44919e-06 3.47667e-05 0.0140393)
(-9.61364e-06 3.20893e-05 0.013926)
(-1.38211e-05 2.71088e-05 0.0136685)
(-1.48326e-05 2.0935e-05 0.0132081)
(-1.46795e-05 1.46795e-05 0.0124771)
(2.09351e-05 1.48326e-05 0.0132081)
(2.29897e-05 2.29897e-05 0.0139007)
(2.12185e-05 3.07039e-05 0.0142635)
(1.48317e-05 3.6732e-05 0.0144379)
(5.31865e-06 3.99829e-05 0.0145063)
(-5.31864e-06 3.99829e-05 0.0145063)
(-1.48317e-05 3.6732e-05 0.0144379)
(-2.12185e-05 3.07039e-05 0.0142635)
(-2.29897e-05 2.29897e-05 0.0139007)
(-2.0935e-05 1.48326e-05 0.0132081)
(2.71088e-05 1.38211e-05 0.0136685)
(3.07039e-05 2.12185e-05 0.0142635)
(2.83171e-05 2.83171e-05 0.0145266)
(1.97818e-05 3.37746e-05 0.0146291)
(7.0842e-06 3.6691e-05 0.0146617)
(-7.0842e-06 3.6691e-05 0.0146617)
(-1.97818e-05 3.37746e-05 0.0146291)
(-2.83171e-05 2.83171e-05 0.0145266)
(-3.07039e-05 2.12185e-05 0.0142635)
(-2.71088e-05 1.38211e-05 0.0136685)
(3.20893e-05 9.61364e-06 0.013926)
(3.6732e-05 1.48317e-05 0.0144379)
(3.37746e-05 1.97818e-05 0.0146291)
(2.35391e-05 2.35391e-05 0.0146856)
(8.41607e-06 2.55296e-05 0.0146972)
(-8.41606e-06 2.55296e-05 0.0146972)
(-2.35391e-05 2.35391e-05 0.0146856)
(-3.37745e-05 1.97818e-05 0.0146291)
(-3.67319e-05 1.48317e-05 0.0144379)
(-3.20893e-05 9.61364e-06 0.013926)
(3.47667e-05 3.44919e-06 0.0140393)
(3.99829e-05 5.31865e-06 0.0145063)
(3.6691e-05 7.0842e-06 0.0146617)
(2.55296e-05 8.41606e-06 0.0146972)
(9.11841e-06 9.11841e-06 0.0146998)
(-9.1184e-06 9.11841e-06 0.0146998)
(-2.55296e-05 8.41607e-06 0.0146972)
(-3.6691e-05 7.0842e-06 0.0146617)
(-3.99829e-05 5.31865e-06 0.0145063)
(-3.47667e-05 3.4492e-06 0.0140393)
(3.47667e-05 -3.44919e-06 0.0140393)
(3.99829e-05 -5.31865e-06 0.0145063)
(3.6691e-05 -7.0842e-06 0.0146617)
(2.55296e-05 -8.41606e-06 0.0146972)
(9.11841e-06 -9.11841e-06 0.0146998)
(-9.1184e-06 -9.1184e-06 0.0146998)
(-2.55296e-05 -8.41606e-06 0.0146972)
(-3.6691e-05 -7.08419e-06 0.0146617)
(-3.99829e-05 -5.31864e-06 0.0145063)
(-3.47667e-05 -3.44919e-06 0.0140393)
(3.20893e-05 -9.61364e-06 0.013926)
(3.6732e-05 -1.48317e-05 0.0144379)
(3.37746e-05 -1.97818e-05 0.0146291)
(2.35391e-05 -2.35391e-05 0.0146856)
(8.41607e-06 -2.55296e-05 0.0146972)
(-8.41606e-06 -2.55296e-05 0.0146972)
(-2.35391e-05 -2.35391e-05 0.0146856)
(-3.37745e-05 -1.97818e-05 0.0146291)
(-3.67319e-05 -1.48317e-05 0.0144379)
(-3.20893e-05 -9.61364e-06 0.013926)
(2.71087e-05 -1.38211e-05 0.0136685)
(3.07039e-05 -2.12185e-05 0.0142635)
(2.83171e-05 -2.83171e-05 0.0145266)
(1.97818e-05 -3.37745e-05 0.0146291)
(7.0842e-06 -3.6691e-05 0.0146617)
(-7.08419e-06 -3.6691e-05 0.0146617)
(-1.97818e-05 -3.37745e-05 0.0146291)
(-2.83171e-05 -2.83171e-05 0.0145266)
(-3.07039e-05 -2.12185e-05 0.0142635)
(-2.71088e-05 -1.38211e-05 0.0136685)
(2.0935e-05 -1.48326e-05 0.0132081)
(2.29897e-05 -2.29897e-05 0.0139007)
(2.12185e-05 -3.07039e-05 0.0142635)
(1.48317e-05 -3.6732e-05 0.0144379)
(5.31865e-06 -3.99829e-05 0.0145063)
(-5.31864e-06 -3.99829e-05 0.0145063)
(-1.48317e-05 -3.6732e-05 0.0144379)
(-2.12185e-05 -3.07039e-05 0.0142635)
(-2.29896e-05 -2.29897e-05 0.0139007)
(-2.09351e-05 -1.48326e-05 0.0132081)
(1.46795e-05 -1.46795e-05 0.0124771)
(1.48326e-05 -2.0935e-05 0.0132081)
(1.38211e-05 -2.71088e-05 0.0136685)