/*--------------------------------*- C++ -*----------------------------------*\
| =========                 |                                                 |
| \\      /  F ield         | OpenFOAM: The Open Source CFD Toolbox           |
|  \\    /   O peration     | Version:  2412                                  |
|   \\  /    A nd           | Website:  www.openfoam.com                      |
|    \\/     M anipulation  |                                                 |
\*---------------------------------------------------------------------------*/
FoamFile
{
    version     2.0;
    format      ascii;
    arch        "LSB;label=32;scalar=64";
    class       volVectorField;
    location    "3.9";
    object      U;
}
// * * * * * * * * * * * * * * * * * * * * * * * * * * * * * * * * * * * * * //

dimensions      [0 1 -1 0 0 0 0];

internalField   nonuniform List<vector> 
15000
(
(0.0011759 0.0011759 0.0105388)
(0.00086678 0.00109828 0.0105182)
(0.000589579 0.00107287 0.0104868)
(0.000345738 0.00104753 0.0104599)
(0.000113447 0.0010359 0.0104453)
(-0.000113447 0.0010359 0.0104453)
(-0.000345738 0.00104753 0.0104599)
(-0.000589579 0.00107287 0.0104868)
(-0.00086678 0.00109828 0.0105182)
(-0.0011759 0.0011759 0.0105388)
(0.00109828 0.00086678 0.0105182)
(0.000815734 0.000815734 0.0104673)
(0.000557403 0.000779922 0.010417)
(0.000324661 0.000754576 0.0103807)
(0.000106425 0.000742314 0.0103623)
(-0.000106425 0.000742314 0.0103623)
(-0.000324661 0.000754576 0.0103807)
(-0.000557404 0.000779922 0.010417)
(-0.000815734 0.000815734 0.0104673)
(-0.00109828 0.00086678 0.0105182)
(0.00107287 0.000589579 0.0104868)
(0.000779922 0.000557403 0.010417)
(0.000528747 0.000528747 0.0103583)
(0.0003061 0.000508052 0.0103187)
(0.000100108 0.000497672 0.0102991)
(-0.000100108 0.000497672 0.0102991)
(-0.0003061 0.000508052 0.0103187)
(-0.000528747 0.000528747 0.0103583)
(-0.000779922 0.000557404 0.010417)
(-0.00107287 0.000589579 0.0104868)
(0.00104753 0.000345738 0.0104599)
(0.000754576 0.000324661 0.0103807)
(0.000508052 0.0003061 0.0103187)
(0.000292675 0.000292675 0.010278)
(9.55148e-05 0.000285875 0.0102582)
(-9.55148e-05 0.000285875 0.0102582)
(-0.000292675 0.000292675 0.010278)
(-0.000508052 0.0003061 0.0103187)
(-0.000754576 0.000324661 0.0103807)
(-0.00104753 0.000345738 0.0104599)
(0.0010359 0.000113447 0.0104453)
(0.000742314 0.000106425 0.0103623)
(0.000497672 0.000100108 0.0102991)
(0.000285875 9.55148e-05 0.0102582)
(9.31804e-05 9.31804e-05 0.0102383)
(-9.31804e-05 9.31804e-05 0.0102383)
(-0.000285875 9.55148e-05 0.0102582)
(-0.000497672 0.000100108 0.0102991)
(-0.000742314 0.000106425 0.0103623)
(-0.0010359 0.000113447 0.0104453)
(0.0010359 -0.000113447 0.0104453)
(0.000742314 -0.000106425 0.0103623)
(0.000497672 -0.000100108 0.0102991)
(0.000285875 -9.55148e-05 0.0102582)
(9.31804e-05 -9.31804e-05 0.0102383)
(-9.31804e-05 -9.31804e-05 0.0102383)
(-0.000285875 -9.55148e-05 0.0102582)
(-0.000497672 -0.000100108 0.0102991)
(-0.000742314 -0.000106425 0.0103623)
(-0.0010359 -0.000113447 0.0104453)
(0.00104753 -0.000345738 0.0104599)
(0.000754576 -0.000324661 0.0103807)
(0.000508052 -0.0003061 0.0103187)
(0.000292675 -0.000292675 0.010278)
(9.55148e-05 -0.000285875 0.0102582)
(-9.55148e-05 -0.000285875 0.0102582)
(-0.000292675 -0.000292675 0.010278)
(-0.000508052 -0.0003061 0.0103187)
(-0.000754576 -0.000324661 0.0103807)
(-0.00104753 -0.000345738 0.0104599)
(0.00107287 -0.000589579 0.0104868)
(0.000779922 -0.000557403 0.010417)
(0.000528747 -0.000528747 0.0103583)
(0.0003061 -0.000508052 0.0103187)
(0.000100108 -0.000497672 0.0102991)
(-0.000100108 -0.000497672 0.0102991)
(-0.0003061 -0.000508052 0.0103187)
(-0.000528747 -0.000528747 0.0103583)
(-0.000779922 -0.000557403 0.010417)
(-0.00107287 -0.000589579 0.0104868)
(0.00109828 -0.00086678 0.0105182)
(0.000815734 -0.000815734 0.0104673)
(0.000557403 -0.000779922 0.010417)
(0.000324661 -0.000754576 0.0103807)
(0.000106425 -0.000742314 0.0103623)
(-0.000106425 -0.000742314 0.0103623)
(-0.000324661 -0.000754576 0.0103807)
(-0.000557403 -0.000779922 0.010417)
(-0.000815734 -0.000815734 0.0104673)
(-0.00109828 -0.00086678 0.0105182)
(0.0011759 -0.0011759 0.0105388)
(0.00086678 -0.00109828 0.0105182)
(0.000589579 -0.00107287 0.0104868)
(0.000345738 -0.00104753 0.0104599)
(0.000113447 -0.0010359 0.0104453)
(-0.000113447 -0.0010359 0.0104453)
(-0.000345738 -0.00104753 0.0104599)
(-0.000589579 -0.00107287 0.0104868)
(-0.00086678 -0.00109828 0.0105182)
(-0.0011759 -0.0011759 0.0105388)
(0.000582513 0.000582513 0.0124909)
(0.000461843 0.000613379 0.0124214)
(0.000329169 0.000636688 0.0123139)
(0.000197956 0.000649173 0.0122222)
(6.56895e-05 0.0006562 0.0121726)
(-6.56895e-05 0.0006562 0.0121726)
(-0.000197956 0.000649173 0.0122222)
(-0.000329169 0.000636688 0.0123139)
(-0.000461843 0.00061338 0.0124214)
(-0.000582513 0.000582513 0.0124909)
(0.000613379 0.000461843 0.0124214)
(0.000482606 0.000482606 0.0122446)
(0.000344289 0.000496434 0.0120698)
(0.000206463 0.000504085 0.011944)
(6.86709e-05 0.000508228 0.0118801)
(-6.86709e-05 0.000508228 0.0118801)
(-0.000206463 0.000504085 0.011944)
(-0.000344289 0.000496434 0.0120698)
(-0.000482606 0.000482606 0.0122446)
(-0.000613379 0.000461843 0.0124214)
(0.000636688 0.000329169 0.0123139)
(0.000496434 0.000344289 0.0120698)
(0.000353882 0.000353882 0.0118636)
(0.000212044 0.000359284 0.0117247)
(7.05947e-05 0.00036203 0.011656)
(-7.05947e-05 0.00036203 0.011656)
(-0.000212044 0.000359284 0.0117247)
(-0.000353882 0.000353882 0.0118636)
(-0.000496434 0.000344289 0.0120698)
(-0.000636688 0.000329169 0.0123139)
(0.000649173 0.000197956 0.0122222)
(0.000504085 0.000206463 0.011944)
(0.000359284 0.000212044 0.0117247)
(0.0002153 0.0002153 0.0115814)
(7.17201e-05 0.000216928 0.0115115)
(-7.17201e-05 0.000216928 0.0115115)
(-0.0002153 0.0002153 0.0115814)
(-0.000359284 0.000212044 0.0117247)
(-0.000504085 0.000206463 0.011944)
(-0.000649173 0.000197956 0.0122222)
(0.0006562 6.56895e-05 0.0121726)
(0.000508228 6.86709e-05 0.0118801)
(0.00036203 7.05947e-05 0.011656)
(0.000216928 7.17201e-05 0.0115115)
(7.22768e-05 7.22768e-05 0.0114414)
(-7.22768e-05 7.22768e-05 0.0114414)
(-0.000216928 7.17201e-05 0.0115115)
(-0.00036203 7.05947e-05 0.011656)
(-0.000508228 6.86709e-05 0.0118801)
(-0.0006562 6.56895e-05 0.0121726)
(0.0006562 -6.56895e-05 0.0121726)
(0.000508228 -6.86709e-05 0.0118801)
(0.00036203 -7.05947e-05 0.011656)
(0.000216928 -7.17201e-05 0.0115115)
(7.22768e-05 -7.22768e-05 0.0114414)
(-7.22768e-05 -7.22768e-05 0.0114414)
(-0.000216928 -7.17201e-05 0.0115115)
(-0.00036203 -7.05947e-05 0.011656)
(-0.000508228 -6.86709e-05 0.0118801)
(-0.0006562 -6.56895e-05 0.0121726)
(0.000649173 -0.000197956 0.0122222)
(0.000504085 -0.000206463 0.011944)
(0.000359284 -0.000212044 0.0117247)
(0.0002153 -0.0002153 0.0115814)
(7.17201e-05 -0.000216928 0.0115115)
(-7.17201e-05 -0.000216928 0.0115115)
(-0.0002153 -0.0002153 0.0115814)
(-0.000359284 -0.000212044 0.0117247)
(-0.000504085 -0.000206463 0.011944)
(-0.000649173 -0.000197956 0.0122222)
(0.000636688 -0.000329169 0.0123139)
(0.000496434 -0.000344289 0.0120698)
(0.000353882 -0.000353882 0.0118636)
(0.000212044 -0.000359284 0.0117247)
(7.05947e-05 -0.00036203 0.011656)
(-7.05947e-05 -0.00036203 0.011656)
(-0.000212044 -0.000359284 0.0117247)
(-0.000353882 -0.000353882 0.0118636)
(-0.000496434 -0.000344289 0.0120698)
(-0.000636688 -0.000329169 0.0123139)
(0.000613379 -0.000461843 0.0124214)
(0.000482606 -0.000482606 0.0122446)
(0.000344289 -0.000496434 0.0120698)
(0.000206463 -0.000504085 0.011944)
(6.86709e-05 -0.000508228 0.0118801)
(-6.86709e-05 -0.000508228 0.0118801)
(-0.000206463 -0.000504085 0.011944)
(-0.000344289 -0.000496434 0.0120698)
(-0.000482606 -0.000482606 0.0122446)
(-0.000613379 -0.000461843 0.0124214)
(0.000582513 -0.000582513 0.0124909)
(0.000461843 -0.000613379 0.0124214)
(0.000329169 -0.000636688 0.0123139)
(0.000197956 -0.000649173 0.0122222)
(6.56895e-05 -0.0006562 0.0121726)
(-6.56895e-05 -0.0006562 0.0121726)
(-0.000197956 -0.000649173 0.0122222)
(-0.000329169 -0.000636688 0.0123139)
(-0.000461843 -0.000613379 0.0124214)
(-0.000582513 -0.000582513 0.0124909)
(0.000343609 0.000343609 0.0123443)
(0.000289513 0.000384013 0.0124443)
(0.000218638 0.000414593 0.0124454)
(0.000136059 0.000434096 0.0124191)
(4.59447e-05 0.000444229 0.0124004)
(-4.59448e-05 0.000444229 0.0124004)
(-0.000136059 0.000434096 0.0124191)
(-0.000218638 0.000414593 0.0124454)
(-0.000289513 0.000384013 0.0124443)
(-0.000343609 0.000343609 0.0123443)
(0.000384013 0.000289513 0.0124443)
(0.000325951 0.000325951 0.012426)
(0.000246258 0.000351555 0.0123529)
(0.000153047 0.000367375 0.0122891)
(5.17819e-05 0.000375299 0.0122548)
(-5.17819e-05 0.000375299 0.0122548)
(-0.000153047 0.000367375 0.0122891)
(-0.000246258 0.000351555 0.0123529)
(-0.000325951 0.000325951 0.012426)
(-0.000384013 0.000289513 0.0124443)
(0.000414593 0.000218638 0.0124454)
(0.000351555 0.000246258 0.0123529)
(0.000265379 0.000265379 0.0122442)
(0.000164668 0.000276942 0.0121649)
(5.57234e-05 0.000282546 0.0121247)
(-5.57234e-05 0.000282546 0.0121247)
(-0.000164668 0.000276942 0.0121649)
(-0.000265379 0.000265379 0.0122442)
(-0.000351555 0.000246258 0.0123529)
(-0.000414593 0.000218638 0.0124454)
(0.000434096 0.000136059 0.0124191)
(0.000367375 0.000153047 0.0122891)
(0.000276942 0.000164668 0.0121649)
(0.000171613 0.000171613 0.0120796)
(5.80558e-05 0.000174915 0.0120372)
(-5.80558e-05 0.000174915 0.0120372)
(-0.000171613 0.000171613 0.0120796)
(-0.000276942 0.000164668 0.0121649)
(-0.000367375 0.000153047 0.0122891)
(-0.000434096 0.000136059 0.0124191)
(0.000444229 4.59447e-05 0.0124004)
(0.000375299 5.17819e-05 0.0122548)
(0.000282546 5.57234e-05 0.0121247)
(0.000174915 5.80558e-05 0.0120372)
(5.91517e-05 5.91517e-05 0.0119941)
(-5.91517e-05 5.91517e-05 0.0119941)
(-0.000174915 5.80558e-05 0.0120372)
(-0.000282546 5.57234e-05 0.0121247)
(-0.000375299 5.17819e-05 0.0122548)
(-0.000444229 4.59447e-05 0.0124004)
(0.000444229 -4.59447e-05 0.0124004)
(0.000375299 -5.17819e-05 0.0122548)
(0.000282546 -5.57234e-05 0.0121247)
(0.000174915 -5.80558e-05 0.0120372)
(5.91517e-05 -5.91517e-05 0.0119941)
(-5.91517e-05 -5.91517e-05 0.0119941)
(-0.000174915 -5.80558e-05 0.0120372)
(-0.000282546 -5.57234e-05 0.0121247)
(-0.000375299 -5.17819e-05 0.0122548)
(-0.000444229 -4.59448e-05 0.0124004)
(0.000434096 -0.000136059 0.0124191)
(0.000367375 -0.000153047 0.0122891)
(0.000276942 -0.000164668 0.0121649)
(0.000171613 -0.000171613 0.0120796)
(5.80558e-05 -0.000174915 0.0120372)
(-5.80558e-05 -0.000174915 0.0120372)
(-0.000171613 -0.000171613 0.0120796)
(-0.000276942 -0.000164668 0.0121649)
(-0.000367375 -0.000153047 0.0122891)
(-0.000434096 -0.000136059 0.0124191)
(0.000414593 -0.000218638 0.0124454)
(0.000351555 -0.000246258 0.0123529)
(0.000265379 -0.000265379 0.0122442)
(0.000164668 -0.000276942 0.0121649)
(5.57234e-05 -0.000282546 0.0121247)
(-5.57234e-05 -0.000282546 0.0121247)
(-0.000164668 -0.000276942 0.0121649)
(-0.000265379 -0.000265379 0.0122442)
(-0.000351555 -0.000246258 0.0123529)
(-0.000414593 -0.000218638 0.0124454)
(0.000384013 -0.000289513 0.0124443)
(0.000325951 -0.000325951 0.012426)
(0.000246258 -0.000351555 0.0123529)
(0.000153047 -0.000367375 0.0122891)
(5.17819e-05 -0.000375299 0.0122548)
(-5.17819e-05 -0.000375299 0.0122548)
(-0.000153047 -0.000367375 0.0122891)
(-0.000246258 -0.000351555 0.0123529)
(-0.000325951 -0.000325951 0.012426)
(-0.000384013 -0.000289513 0.0124443)
(0.000343609 -0.000343609 0.0123443)
(0.000289513 -0.000384013 0.0124443)
(0.000218638 -0.000414593 0.0124454)
(0.000136059 -0.000434096 0.0124191)
(4.59447e-05 -0.000444229 0.0124004)
(-4.59448e-05 -0.000444229 0.0124004)
(-0.000136059 -0.000434096 0.0124191)
(-0.000218638 -0.000414593 0.0124454)
(-0.000289513 -0.000384013 0.0124443)
(-0.000343609 -0.000343609 0.0123443)
(0.000116979 0.000116979 0.0124521)
(0.000106294 0.000146105 0.0126104)
(8.5829e-05 0.000167734 0.0126565)
(5.53607e-05 0.000182897 0.0126603)
(1.90263e-05 0.000190747 0.0126564)
(-1.90263e-05 0.000190747 0.0126564)
(-5.53607e-05 0.000182897 0.0126603)
(-8.5829e-05 0.000167734 0.0126565)
(-0.000106294 0.000146105 0.0126104)
(-0.000116979 0.000116979 0.0124521)
(0.000146105 0.000106294 0.0126104)
(0.000134138 0.000134138 0.012663)
(0.00010751 0.000155044 0.0126419)
(6.92428e-05 0.000168904 0.0126114)
(2.38275e-05 0.000175934 0.0125931)
(-2.38275e-05 0.000175934 0.0125931)
(-6.92428e-05 0.000168904 0.0126114)
(-0.00010751 0.000155044 0.0126419)
(-0.000134138 0.000134138 0.012663)
(-0.000146105 0.000106294 0.0126104)
(0.000167734 8.5829e-05 0.0126565)
(0.000155044 0.00010751 0.0126419)
(0.000124088 0.000124088 0.0125878)
(7.975e-05 0.00013492 0.0125425)
(2.74396e-05 0.00014033 0.0125184)
(-2.74395e-05 0.00014033 0.0125184)
(-7.975e-05 0.00013492 0.0125425)
(-0.000124088 0.000124088 0.0125878)
(-0.000155044 0.00010751 0.0126419)
(-0.000167734 8.5829e-05 0.0126565)
(0.000182897 5.53607e-05 0.0126603)
(0.000168904 6.92428e-05 0.0126114)
(0.00013492 7.975e-05 0.0125425)
(8.65726e-05 8.65726e-05 0.0124909)
(2.97744e-05 8.99517e-05 0.0124644)
(-2.97744e-05 8.99517e-05 0.0124644)
(-8.65726e-05 8.65726e-05 0.0124909)
(-0.00013492 7.975e-05 0.0125425)
(-0.000168904 6.92428e-05 0.0126114)
(-0.000182897 5.53607e-05 0.0126603)
(0.000190747 1.90263e-05 0.0126564)
(0.000175934 2.38275e-05 0.0125931)
(0.00014033 2.74396e-05 0.0125184)
(8.99517e-05 2.97744e-05 0.0124644)
(3.09253e-05 3.09253e-05 0.012437)
(-3.09253e-05 3.09253e-05 0.012437)
(-8.99517e-05 2.97744e-05 0.0124644)
(-0.00014033 2.74396e-05 0.0125184)
(-0.000175934 2.38274e-05 0.0125931)
(-0.000190747 1.90263e-05 0.0126564)
(0.000190747 -1.90263e-05 0.0126564)
(0.000175934 -2.38275e-05 0.0125931)
(0.00014033 -2.74396e-05 0.0125184)
(8.99517e-05 -2.97744e-05 0.0124644)
(3.09253e-05 -3.09253e-05 0.012437)
(-3.09253e-05 -3.09253e-05 0.012437)
(-8.99517e-05 -2.97744e-05 0.0124644)
(-0.00014033 -2.74396e-05 0.0125184)
(-0.000175934 -2.38275e-05 0.0125931)
(-0.000190747 -1.90263e-05 0.0126564)
(0.000182897 -5.53607e-05 0.0126603)
(0.000168904 -6.92428e-05 0.0126114)
(0.00013492 -7.975e-05 0.0125425)
(8.65726e-05 -8.65726e-05 0.0124909)
(2.97744e-05 -8.99517e-05 0.0124644)
(-2.97744e-05 -8.99517e-05 0.0124644)
(-8.65726e-05 -8.65726e-05 0.0124909)
(-0.00013492 -7.975e-05 0.0125425)
(-0.000168904 -6.92428e-05 0.0126114)
(-0.000182897 -5.53606e-05 0.0126603)
(0.000167734 -8.5829e-05 0.0126565)
(0.000155044 -0.00010751 0.0126419)
(0.000124088 -0.000124088 0.0125878)
(7.975e-05 -0.00013492 0.0125425)
(2.74396e-05 -0.00014033 0.0125184)
(-2.74396e-05 -0.00014033 0.0125184)
(-7.975e-05 -0.00013492 0.0125425)
(-0.000124088 -0.000124088 0.0125878)
(-0.000155044 -0.00010751 0.0126419)
(-0.000167734 -8.58289e-05 0.0126565)
(0.000146105 -0.000106294 0.0126104)
(0.000134138 -0.000134138 0.012663)
(0.00010751 -0.000155044 0.0126419)
(6.92428e-05 -0.000168904 0.0126114)
(2.38275e-05 -0.000175934 0.0125931)
(-2.38275e-05 -0.000175934 0.0125931)
(-6.92428e-05 -0.000168904 0.0126114)
(-0.00010751 -0.000155044 0.0126419)
(-0.000134138 -0.000134138 0.012663)
(-0.000146105 -0.000106294 0.0126104)
(0.000116979 -0.000116979 0.0124521)
(0.000106294 -0.000146105 0.0126104)
(8.5829e-05 -0.000167734 0.0126565)
(5.53607e-05 -0.000182897 0.0126603)
(1.90263e-05 -0.000190747 0.0126564)
(-1.90263e-05 -0.000190747 0.0126564)
(-5.53606e-05 -0.000182897 0.0126603)
(-8.58289e-05 -0.000167734 0.0126565)
(-0.000106294 -0.000146105 0.0126104)
(-0.000116979 -0.000116979 0.0124521)
(4.09831e-05 4.09831e-05 0.0124084)
(3.83634e-05 5.28789e-05 0.0125995)
(3.21148e-05 6.21241e-05 0.0126743)
(2.10713e-05 6.89268e-05 0.0126988)
(7.30479e-06 7.24753e-05 0.0127054)
(-7.30479e-06 7.24753e-05 0.0127054)
(-2.10713e-05 6.89268e-05 0.0126988)
(-3.21148e-05 6.21241e-05 0.0126743)
(-3.83634e-05 5.28789e-05 0.0125995)
(-4.09831e-05 4.09831e-05 0.0124084)
(5.28789e-05 3.83634e-05 0.0125995)
(5.086e-05 5.086e-05 0.0126977)
(4.21553e-05 6.05899e-05 0.0127136)
(2.76688e-05 6.73e-05 0.0127088)
(9.60666e-06 7.07621e-05 0.0127035)
(-9.60664e-06 7.07621e-05 0.0127035)
(-2.76688e-05 6.73001e-05 0.0127088)
(-4.21553e-05 6.059e-05 0.0127136)
(-5.086e-05 5.086e-05 0.0126977)
(-5.28789e-05 3.83634e-05 0.0125995)
(6.21241e-05 3.21148e-05 0.0126743)
(6.05899e-05 4.21553e-05 0.0127136)
(5.02128e-05 5.02128e-05 0.0127018)
(3.29447e-05 5.5717e-05 0.0126849)
(1.14467e-05 5.85348e-05 0.0126749)
(-1.14467e-05 5.85348e-05 0.0126749)
(-3.29447e-05 5.5717e-05 0.0126849)
(-5.02128e-05 5.02128e-05 0.0127018)
(-6.059e-05 4.21553e-05 0.0127136)
(-6.21241e-05 3.21148e-05 0.0126743)
(6.89268e-05 2.10713e-05 0.0126988)
(6.73e-05 2.76688e-05 0.0127088)
(5.5717e-05 3.29447e-05 0.0126849)
(3.65369e-05 3.65369e-05 0.0126629)
(1.26975e-05 3.83667e-05 0.012651)
(-1.26974e-05 3.83667e-05 0.012651)
(-3.65369e-05 3.65369e-05 0.0126629)
(-5.5717e-05 3.29447e-05 0.0126849)
(-6.73001e-05 2.76688e-05 0.0127088)
(-6.89268e-05 2.10713e-05 0.0126988)
(7.24753e-05 7.30479e-06 0.0127054)
(7.07621e-05 9.60666e-06 0.0127035)
(5.85348e-05 1.14468e-05 0.0126749)
(3.83667e-05 1.26975e-05 0.012651)
(1.33325e-05 1.33325e-05 0.0126383)
(-1.33325e-05 1.33325e-05 0.0126383)
(-3.83667e-05 1.26975e-05 0.012651)
(-5.85348e-05 1.14467e-05 0.0126749)
(-7.07621e-05 9.60664e-06 0.0127035)
(-7.24753e-05 7.30479e-06 0.0127054)
(7.24753e-05 -7.30479e-06 0.0127054)
(7.07621e-05 -9.60663e-06 0.0127035)
(5.85348e-05 -1.14467e-05 0.0126749)
(3.83667e-05 -1.26974e-05 0.012651)
(1.33325e-05 -1.33325e-05 0.0126383)
(-1.33325e-05 -1.33325e-05 0.0126383)
(-3.83667e-05 -1.26975e-05 0.012651)
(-5.85348e-05 -1.14467e-05 0.0126749)
(-7.07621e-05 -9.60665e-06 0.0127035)
(-7.24753e-05 -7.30479e-06 0.0127054)
(6.89268e-05 -2.10713e-05 0.0126988)
(6.73001e-05 -2.76688e-05 0.0127088)
(5.5717e-05 -3.29447e-05 0.0126849)
(3.65369e-05 -3.65369e-05 0.0126629)
(1.26975e-05 -3.83667e-05 0.012651)
(-1.26975e-05 -3.83667e-05 0.012651)
(-3.65369e-05 -3.65369e-05 0.0126629)
(-5.5717e-05 -3.29447e-05 0.0126849)
(-6.73e-05 -2.76688e-05 0.0127088)
(-6.89268e-05 -2.10713e-05 0.0126988)
(6.21241e-05 -3.21148e-05 0.0126743)
(6.059e-05 -4.21553e-05 0.0127136)
(5.02128e-05 -5.02128e-05 0.0127018)
(3.29447e-05 -5.5717e-05 0.0126849)
(1.14467e-05 -5.85348e-05 0.0126749)
(-1.14467e-05 -5.85348e-05 0.0126749)
(-3.29447e-05 -5.5717e-05 0.0126849)
(-5.02128e-05 -5.02128e-05 0.0127018)
(-6.05899e-05 -4.21552e-05 0.0127136)
(-6.21241e-05 -3.21148e-05 0.0126743)
(5.28789e-05 -3.83634e-05 0.0125995)
(5.086e-05 -5.086e-05 0.0126977)
(4.21553e-05 -6.059e-05 0.0127136)
(2.76688e-05 -6.73001e-05 0.0127088)
(9.60664e-06 -7.07621e-05 0.0127035)
(-9.60666e-06 -7.07621e-05 0.0127035)
(-2.76688e-05 -6.73e-05 0.0127088)
(-4.21552e-05 -6.05899e-05 0.0127136)
(-5.08599e-05 -5.08599e-05 0.0126977)
(-5.28789e-05 -3.83634e-05 0.0125995)
(4.09831e-05 -4.09831e-05 0.0124084)
(3.83634e-05 -5.28789e-05 0.0125995)
(3.21148e-05 -6.21241e-05 0.0126743)
(2.10713e-05 -6.89268e-05 0.0126988)
(7.30479e-06 -7.24753e-05 0.0127054)
(-7.30479e-06 -7.24753e-05 0.0127054)
(-2.10713e-05 -6.89268e-05 0.0126988)
(-3.21148e-05 -6.21241e-05 0.0126743)
(-3.83634e-05 -5.28789e-05 0.0125995)
(-4.09831e-05 -4.09831e-05 0.0124084)
(1.31021e-05 1.31021e-05 0.0123807)
(1.29223e-05 1.79632e-05 0.0125803)
(1.13549e-05 2.18032e-05 0.0126641)
(7.62575e-06 2.47044e-05 0.0126957)
(2.67569e-06 2.6221e-05 0.0127062)
(-2.67569e-06 2.6221e-05 0.0127062)
(-7.62573e-06 2.47044e-05 0.0126957)
(-1.13549e-05 2.18032e-05 0.0126641)
(-1.29223e-05 1.79632e-05 0.0125803)
(-1.31021e-05 1.31021e-05 0.0123807)
(1.79632e-05 1.29223e-05 0.0125803)
(1.82615e-05 1.82615e-05 0.012694)
(1.57282e-05 2.25135e-05 0.0127242)
(1.05459e-05 2.55175e-05 0.0127299)
(3.69858e-06 2.70777e-05 0.0127301)
(-3.69859e-06 2.70777e-05 0.0127301)
(-1.05459e-05 2.55175e-05 0.0127299)
(-1.57282e-05 2.25135e-05 0.0127242)
(-1.82615e-05 1.82615e-05 0.012694)
(-1.79632e-05 1.29223e-05 0.0125803)
(2.18032e-05 1.13549e-05 0.0126641)
(2.25135e-05 1.57282e-05 0.0127242)
(1.93379e-05 1.93379e-05 0.0127304)
(1.29498e-05 2.18616e-05 0.0127263)
(4.5421e-06 2.31658e-05 0.012723)
(-4.5421e-06 2.31658e-05 0.012723)
(-1.29498e-05 2.18616e-05 0.0127263)
(-1.93379e-05 1.9338e-05 0.0127304)
(-2.25135e-05 1.57282e-05 0.0127242)
(-2.18032e-05 1.13549e-05 0.0126641)
(2.47044e-05 7.62574e-06 0.0126957)
(2.55175e-05 1.05458e-05 0.0127299)
(2.18616e-05 1.29498e-05 0.0127263)
(1.46216e-05 1.46216e-05 0.0127187)
(5.12775e-06 1.54819e-05 0.0127141)
(-5.12774e-06 1.54819e-05 0.0127141)
(-1.46216e-05 1.46216e-05 0.0127187)
(-2.18616e-05 1.29498e-05 0.0127263)
(-2.55175e-05 1.05459e-05 0.0127299)
(-2.47044e-05 7.62573e-06 0.0126957)
(2.6221e-05 2.67569e-06 0.0127062)
(2.70777e-05 3.69858e-06 0.0127301)
(2.31658e-05 4.54209e-06 0.012723)
(1.54819e-05 5.12775e-06 0.0127141)
(5.42843e-06 5.42843e-06 0.0127091)
(-5.42842e-06 5.42843e-06 0.0127091)
(-1.54819e-05 5.12775e-06 0.0127141)
(-2.31658e-05 4.5421e-06 0.012723)
(-2.70777e-05 3.69858e-06 0.0127301)
(-2.6221e-05 2.67568e-06 0.0127062)
(2.6221e-05 -2.67568e-06 0.0127062)
(2.70777e-05 -3.69858e-06 0.0127301)
(2.31658e-05 -4.54209e-06 0.012723)
(1.54819e-05 -5.12774e-06 0.0127141)
(5.42844e-06 -5.42842e-06 0.0127091)
(-5.42842e-06 -5.42842e-06 0.0127091)
(-1.54819e-05 -5.12774e-06 0.0127141)
(-2.31658e-05 -4.54209e-06 0.012723)
(-2.70777e-05 -3.69858e-06 0.0127301)
(-2.6221e-05 -2.67569e-06 0.0127062)
(2.47044e-05 -7.62573e-06 0.0126957)
(2.55175e-05 -1.05458e-05 0.0127299)
(2.18616e-05 -1.29498e-05 0.0127263)
(1.46216e-05 -1.46216e-05 0.0127187)
(5.12775e-06 -1.54819e-05 0.0127141)
(-5.12774e-06 -1.54819e-05 0.0127141)
(-1.46216e-05 -1.46216e-05 0.0127187)
(-2.18616e-05 -1.29498e-05 0.0127263)
(-2.55175e-05 -1.05458e-05 0.0127299)
(-2.47044e-05 -7.62571e-06 0.0126957)
(2.18032e-05 -1.13549e-05 0.0126641)
(2.25135e-05 -1.57282e-05 0.0127242)
(1.93379e-05 -1.93379e-05 0.0127304)
(1.29498e-05 -2.18616e-05 0.0127263)
(4.5421e-06 -2.31658e-05 0.012723)
(-4.54209e-06 -2.31658e-05 0.012723)
(-1.29498e-05 -2.18616e-05 0.0127263)
(-1.93379e-05 -1.93379e-05 0.0127304)
(-2.25135e-05 -1.57281e-05 0.0127242)
(-2.18032e-05 -1.13549e-05 0.0126641)
(1.79632e-05 -1.29223e-05 0.0125803)
(1.82615e-05 -1.82615e-05 0.012694)
(1.57282e-05 -2.25135e-05 0.0127242)
(1.05458e-05 -2.55175e-05 0.0127299)
(3.69857e-06 -2.70777e-05 0.0127301)
(-3.69858e-06 -2.70777e-05 0.0127301)
(-1.05458e-05 -2.55175e-05 0.0127299)
(-1.57281e-05 -2.25135e-05 0.0127242)
(-1.82615e-05 -1.82615e-05 0.012694)
(-1.79632e-05 -1.29223e-05 0.0125803)
(1.31021e-05 -1.31021e-05 0.0123807)
(1.29223e-05 -1.79632e-05 0.0125803)
(1.13549e-05 -2.18032e-05 0.0126641)
(7.62573e-06 -2.47044e-05 0.0126957)
(2.67568e-06 -2.6221e-05 0.0127062)
(-2.67569e-06 -2.6221e-05 0.0127062)
(-7.62573e-06 -2.47044e-05 0.0126957)
(-1.13549e-05 -2.18032e-05 0.0126641)
(-1.29223e-05 -1.79632e-05 0.0125803)
(-1.31021e-05 -1.31021e-05 0.0123807)
(3.60703e-06 3.60702e-06 0.0123719)
(3.79031e-06 5.40667e-06 0.0125737)
(3.51911e-06 6.85024e-06 0.0126603)
(2.42142e-06 7.99085e-06 0.0126943)
(8.61205e-07 8.58615e-06 0.012706)
(-8.612e-07 8.58615e-06 0.012706)
(-2.42142e-06 7.99085e-06 0.0126943)
(-3.51912e-06 6.85026e-06 0.0126603)
(-3.79031e-06 5.40668e-06 0.0125737)
(-3.60703e-06 3.60702e-06 0.0123719)
(5.40667e-06 3.79031e-06 0.0125737)
(5.84097e-06 5.84097e-06 0.0126923)
(5.24823e-06 7.53669e-06 0.0127275)
(3.60107e-06 8.77692e-06 0.012737)
(1.27715e-06 9.42932e-06 0.0127392)
(-1.27714e-06 9.42932e-06 0.0127392)
(-3.60105e-06 8.77693e-06 0.012737)
(-5.24824e-06 7.53671e-06 0.0127275)
(-5.84099e-06 5.84099e-06 0.0126923)
(-5.40667e-06 3.79032e-06 0.0125737)
(6.85024e-06 3.51912e-06 0.0126603)
(7.53669e-06 5.24823e-06 0.0127275)
(6.73811e-06 6.73811e-06 0.0127403)
(4.6161e-06 7.81509e-06 0.0127411)
(1.63652e-06 8.38051e-06 0.0127404)
(-1.6365e-06 8.38051e-06 0.0127404)
(-4.61608e-06 7.81509e-06 0.0127411)
(-6.7381e-06 6.73811e-06 0.0127403)
(-7.5367e-06 5.24824e-06 0.0127275)
(-6.85025e-06 3.51912e-06 0.0126603)
(7.99084e-06 2.42142e-06 0.0126943)
(8.77691e-06 3.60107e-06 0.012737)
(7.81509e-06 4.6161e-06 0.0127411)
(5.34543e-06 5.34543e-06 0.0127391)
(1.89445e-06 5.7271e-06 0.0127374)
(-1.89443e-06 5.72709e-06 0.0127374)
(-5.34541e-06 5.34543e-06 0.0127391)
(-7.81508e-06 4.61609e-06 0.0127411)
(-8.77692e-06 3.60107e-06 0.012737)
(-7.99085e-06 2.42142e-06 0.0126943)
(8.58615e-06 8.61205e-07 0.012706)
(9.42932e-06 1.27715e-06 0.0127392)
(8.38051e-06 1.63653e-06 0.0127404)
(5.72709e-06 1.89445e-06 0.0127374)
(2.02921e-06 2.02921e-06 0.0127355)
(-2.0292e-06 2.02921e-06 0.0127355)
(-5.72708e-06 1.89444e-06 0.0127374)
(-8.3805e-06 1.63652e-06 0.0127404)
(-9.42932e-06 1.27714e-06 0.0127392)
(-8.58615e-06 8.61204e-07 0.012706)
(8.58615e-06 -8.61199e-07 0.012706)
(9.42932e-06 -1.27714e-06 0.0127392)
(8.38051e-06 -1.63651e-06 0.0127404)
(5.72709e-06 -1.89443e-06 0.0127374)
(2.02921e-06 -2.0292e-06 0.0127355)
(-2.0292e-06 -2.0292e-06 0.0127355)
(-5.72708e-06 -1.89444e-06 0.0127374)
(-8.3805e-06 -1.63651e-06 0.0127404)
(-9.42931e-06 -1.27714e-06 0.0127392)
(-8.58614e-06 -8.61204e-07 0.012706)
(7.99084e-06 -2.42142e-06 0.0126943)
(8.77692e-06 -3.60106e-06 0.012737)
(7.81509e-06 -4.61608e-06 0.0127411)
(5.34543e-06 -5.34542e-06 0.0127391)
(1.89444e-06 -5.72708e-06 0.0127374)
(-1.89444e-06 -5.72708e-06 0.0127374)
(-5.34542e-06 -5.34541e-06 0.0127391)
(-7.81508e-06 -4.61608e-06 0.0127411)
(-8.77691e-06 -3.60106e-06 0.012737)
(-7.99084e-06 -2.42142e-06 0.0126943)
(6.85025e-06 -3.51912e-06 0.0126603)
(7.5367e-06 -5.24823e-06 0.0127275)
(6.73811e-06 -6.7381e-06 0.0127403)
(4.61609e-06 -7.81508e-06 0.0127411)
(1.63652e-06 -8.3805e-06 0.0127404)
(-1.63651e-06 -8.3805e-06 0.0127404)
(-4.61608e-06 -7.81507e-06 0.0127411)
(-6.73811e-06 -6.7381e-06 0.0127403)
(-7.5367e-06 -5.24824e-06 0.0127275)
(-6.85024e-06 -3.51911e-06 0.0126603)
(5.40668e-06 -3.79032e-06 0.0125737)
(5.84099e-06 -5.84098e-06 0.0126923)
(5.24824e-06 -7.53671e-06 0.0127275)
(3.60106e-06 -8.77692e-06 0.012737)
(1.27715e-06 -9.42931e-06 0.0127392)
(-1.27714e-06 -9.42931e-06 0.0127392)
(-3.60106e-06 -8.77692e-06 0.012737)
(-5.24824e-06 -7.5367e-06 0.0127275)
(-5.84098e-06 -5.84097e-06 0.0126923)
(-5.40666e-06 -3.7903e-06 0.0125737)
(3.60704e-06 -3.60703e-06 0.0123719)
(3.79032e-06 -5.40668e-06 0.0125737)
(3.51911e-06 -6.85026e-06 0.0126603)
(2.42143e-06 -7.99085e-06 0.0126943)
(8.61213e-07 -8.58615e-06 0.012706)
(-8.61203e-07 -8.58615e-06 0.012706)
(-2.42143e-06 -7.99084e-06 0.0126943)
(-3.51911e-06 -6.85024e-06 0.0126603)
(-3.7903e-06 -5.40666e-06 0.0125737)
(-3.60703e-06 -3.60702e-06 0.0123719)
(9.63608e-07 9.63608e-07 0.0123687)
(1.07059e-06 1.55758e-06 0.0125711)
(1.04085e-06 2.03783e-06 0.0126586)
(7.28558e-07 2.43431e-06 0.0126934)
(2.6239e-07 2.64073e-06 0.0127057)
(-2.62384e-07 2.64073e-06 0.0127057)
(-7.28553e-07 2.43431e-06 0.0126934)
(-1.04085e-06 2.03782e-06 0.0126586)
(-1.07059e-06 1.55758e-06 0.0125711)
(-9.63603e-07 9.63602e-07 0.0123687)
(1.55758e-06 1.07059e-06 0.0125711)
(1.77022e-06 1.77022e-06 0.0126914)
(1.64628e-06 2.36717e-06 0.0127283)
(1.14958e-06 2.81848e-06 0.0127392)
(4.1156e-07 3.05864e-06 0.0127422)
(-4.11559e-07 3.05864e-06 0.0127422)
(-1.14958e-06 2.81848e-06 0.0127392)
(-1.64627e-06 2.36716e-06 0.0127283)
(-1.77022e-06 1.77022e-06 0.0126914)
(-1.55758e-06 1.07059e-06 0.0125711)
(2.03783e-06 1.04084e-06 0.0126586)
(2.36717e-06 1.64628e-06 0.0127283)
(2.18873e-06 2.18873e-06 0.0127436)
(1.52784e-06 2.59425e-06 0.0127463)
(5.46654e-07 2.81048e-06 0.0127465)
(-5.46658e-07 2.81048e-06 0.0127465)
(-1.52784e-06 2.59425e-06 0.0127463)
(-2.18872e-06 2.18873e-06 0.0127436)
(-2.36716e-06 1.64627e-06 0.0127283)
(-2.03782e-06 1.04085e-06 0.0126586)
(2.43432e-06 7.28555e-07 0.0126934)
(2.81849e-06 1.14958e-06 0.0127392)
(2.59426e-06 1.52784e-06 0.0127463)
(1.80899e-06 1.80899e-06 0.0127465)
(6.47083e-07 1.95868e-06 0.012746)
(-6.47085e-07 1.95869e-06 0.012746)
(-1.80899e-06 1.80899e-06 0.0127465)
(-2.59425e-06 1.52784e-06 0.0127463)
(-2.81848e-06 1.14958e-06 0.0127392)
(-2.43431e-06 7.28561e-07 0.0126934)
(2.64073e-06 2.62391e-07 0.0127057)
(3.05864e-06 4.1156e-07 0.0127422)
(2.81048e-06 5.46653e-07 0.0127465)
(1.95868e-06 6.47083e-07 0.012746)
(7.00537e-07 7.00537e-07 0.0127454)
(-7.00534e-07 7.0054e-07 0.0127454)
(-1.95868e-06 6.47089e-07 0.012746)
(-2.81048e-06 5.4666e-07 0.0127465)
(-3.05863e-06 4.11563e-07 0.0127422)
(-2.64072e-06 2.62392e-07 0.0127057)
(2.64073e-06 -2.62386e-07 0.0127057)
(3.05864e-06 -4.11558e-07 0.0127422)
(2.81048e-06 -5.46654e-07 0.0127465)
(1.95869e-06 -6.47082e-07 0.012746)
(7.00539e-07 -7.00533e-07 0.0127454)
(-7.00533e-07 -7.00532e-07 0.0127454)
(-1.95868e-06 -6.4708e-07 0.012746)
(-2.81047e-06 -5.4665e-07 0.0127465)
(-3.05863e-06 -4.11556e-07 0.0127422)
(-2.64072e-06 -2.62391e-07 0.0127057)
(2.43431e-06 -7.28554e-07 0.0126934)
(2.81848e-06 -1.14958e-06 0.0127392)
(2.59425e-06 -1.52784e-06 0.0127463)
(1.80899e-06 -1.80899e-06 0.0127465)
(6.47087e-07 -1.95868e-06 0.012746)
(-6.47081e-07 -1.95868e-06 0.012746)
(-1.80898e-06 -1.80898e-06 0.0127465)
(-2.59424e-06 -1.52784e-06 0.0127463)
(-2.81848e-06 -1.14958e-06 0.0127392)
(-2.43431e-06 -7.28561e-07 0.0126934)
(2.03782e-06 -1.04084e-06 0.0126586)
(2.36716e-06 -1.64627e-06 0.0127283)
(2.18872e-06 -2.18873e-06 0.0127436)
(1.52784e-06 -2.59425e-06 0.0127463)
(5.4666e-07 -2.81047e-06 0.0127465)
(-5.46653e-07 -2.81048e-06 0.0127465)
(-1.52784e-06 -2.59425e-06 0.0127463)
(-2.18872e-06 -2.18872e-06 0.0127436)
(-2.36716e-06 -1.64627e-06 0.0127283)
(-2.03782e-06 -1.04085e-06 0.0126586)
(1.55758e-06 -1.07059e-06 0.0125711)
(1.77022e-06 -1.77022e-06 0.0126914)
(1.64627e-06 -2.36716e-06 0.0127283)
(1.14959e-06 -2.81847e-06 0.0127392)
(4.11559e-07 -3.05863e-06 0.0127422)
(-4.11561e-07 -3.05863e-06 0.0127422)
(-1.14958e-06 -2.81847e-06 0.0127392)
(-1.64627e-06 -2.36716e-06 0.0127283)
(-1.77022e-06 -1.77022e-06 0.0126914)
(-1.55758e-06 -1.07059e-06 0.0125711)
(9.63599e-07 -9.636e-07 0.0123687)
(1.07059e-06 -1.55757e-06 0.0125711)
(1.04086e-06 -2.03781e-06 0.0126586)
(7.28564e-07 -2.43431e-06 0.0126934)
(2.62387e-07 -2.64073e-06 0.0127057)