/*--------------------------------*- C++ -*----------------------------------*\
| =========                 |                                                 |
| \\      /  F ield         | OpenFOAM: The Open Source CFD Toolbox           |
|  \\    /   O peration     | Version:  2412                                  |
|   \\  /    A nd           | Website:  www.openfoam.com                      |
|    \\/     M anipulation  |                                                 |
\*---------------------------------------------------------------------------*/
FoamFile
{
    version     2.0;
    format      ascii;
    arch        "LSB;label=32;scalar=64";
    class       volVectorField;
    location    "0.8";
    object      U;
}
// * * * * * * * * * * * * * * * * * * * * * * * * * * * * * * * * * * * * * //

dimensions      [0 1 -1 0 0 0 0];

internalField   nonuniform List<vector> 
15000
(
(0.000575345 0.000575345 0.0104092)
(0.000402326 0.00050348 0.0103632)
(0.000274511 0.000492368 0.0103313)
(0.00016135 0.000475805 0.0103107)
(5.29172e-05 0.000468771 0.0103008)
(-5.29173e-05 0.000468771 0.0103008)
(-0.00016135 0.000475805 0.0103107)
(-0.000274511 0.000492368 0.0103313)
(-0.000402326 0.00050348 0.0103632)
(-0.000575345 0.000575345 0.0104092)
(0.00050348 0.000402326 0.0103632)
(0.000373758 0.000373758 0.0103171)
(0.000259904 0.000358486 0.0102842)
(0.000153078 0.000348087 0.0102633)
(5.04242e-05 0.000343312 0.0102532)
(-5.04242e-05 0.000343312 0.0102532)
(-0.000153078 0.000348087 0.0102633)
(-0.000259904 0.000358486 0.0102842)
(-0.000373758 0.000373758 0.0103171)
(-0.00050348 0.000402326 0.0103632)
(0.000492368 0.000274511 0.0103313)
(0.000358486 0.000259904 0.0102842)
(0.00024795 0.00024795 0.0102516)
(0.000145292 0.00023934 0.0102312)
(4.78127e-05 0.000235123 0.0102215)
(-4.78127e-05 0.000235123 0.0102215)
(-0.000145292 0.00023934 0.0102312)
(-0.000247951 0.000247951 0.0102516)
(-0.000358486 0.000259904 0.0102842)
(-0.000492368 0.000274511 0.0103313)
(0.000475805 0.00016135 0.0103107)
(0.000348087 0.000153078 0.0102633)
(0.00023934 0.000145292 0.0102312)
(0.000139815 0.000139815 0.0102115)
(4.59687e-05 0.000137106 0.0102021)
(-4.59687e-05 0.000137106 0.0102021)
(-0.000139814 0.000139815 0.0102115)
(-0.00023934 0.000145292 0.0102312)
(-0.000348087 0.000153078 0.0102633)
(-0.000475805 0.00016135 0.0103107)
(0.000468771 5.29172e-05 0.0103008)
(0.000343312 5.04242e-05 0.0102532)
(0.000235123 4.78127e-05 0.0102215)
(0.000137106 4.59687e-05 0.0102021)
(4.50497e-05 4.50497e-05 0.0101929)
(-4.50497e-05 4.50498e-05 0.0101929)
(-0.000137105 4.59688e-05 0.0102021)
(-0.000235123 4.78128e-05 0.0102215)
(-0.000343312 5.04242e-05 0.0102532)
(-0.000468771 5.29172e-05 0.0103008)
(0.000468771 -5.29172e-05 0.0103008)
(0.000343312 -5.04242e-05 0.0102532)
(0.000235123 -4.78127e-05 0.0102215)
(0.000137106 -4.59687e-05 0.0102021)
(4.50498e-05 -4.50497e-05 0.0101929)
(-4.50497e-05 -4.50497e-05 0.0101929)
(-0.000137105 -4.59686e-05 0.0102021)
(-0.000235123 -4.78126e-05 0.0102215)
(-0.000343312 -5.04241e-05 0.0102532)
(-0.000468771 -5.29172e-05 0.0103008)
(0.000475805 -0.00016135 0.0103107)
(0.000348087 -0.000153078 0.0102633)
(0.00023934 -0.000145292 0.0102312)
(0.000139815 -0.000139815 0.0102115)
(4.59687e-05 -0.000137105 0.0102021)
(-4.59687e-05 -0.000137105 0.0102021)
(-0.000139814 -0.000139815 0.0102115)
(-0.00023934 -0.000145292 0.0102312)
(-0.000348087 -0.000153078 0.0102633)
(-0.000475805 -0.00016135 0.0103107)
(0.000492368 -0.000274511 0.0103313)
(0.000358486 -0.000259903 0.0102842)
(0.00024795 -0.00024795 0.0102516)
(0.000145292 -0.00023934 0.0102312)
(4.78127e-05 -0.000235123 0.0102215)
(-4.78127e-05 -0.000235123 0.0102215)
(-0.000145292 -0.00023934 0.0102312)
(-0.00024795 -0.000247951 0.0102516)
(-0.000358486 -0.000259904 0.0102842)
(-0.000492368 -0.000274511 0.0103313)
(0.00050348 -0.000402326 0.0103632)
(0.000373758 -0.000373758 0.0103171)
(0.000259903 -0.000358486 0.0102842)
(0.000153078 -0.000348087 0.0102633)
(5.04243e-05 -0.000343312 0.0102532)
(-5.04242e-05 -0.000343312 0.0102532)
(-0.000153078 -0.000348087 0.0102633)
(-0.000259904 -0.000358486 0.0102842)
(-0.000373758 -0.000373758 0.0103171)
(-0.00050348 -0.000402326 0.0103632)
(0.000575345 -0.000575345 0.0104092)
(0.000402326 -0.000503481 0.0103632)
(0.000274511 -0.000492368 0.0103313)
(0.00016135 -0.000475805 0.0103107)
(5.29172e-05 -0.000468771 0.0103008)
(-5.29172e-05 -0.000468771 0.0103008)
(-0.00016135 -0.000475805 0.0103107)
(-0.000274511 -0.000492368 0.0103313)
(-0.000402326 -0.00050348 0.0103632)
(-0.000575345 -0.000575345 0.0104092)
(0.000198413 0.000198414 0.0109728)
(0.000154403 0.000200975 0.0109028)
(0.000114022 0.000214586 0.010853)
(7.04622e-05 0.000219858 0.0108202)
(2.36449e-05 0.000223001 0.0108041)
(-2.36449e-05 0.000223001 0.0108041)
(-7.04621e-05 0.000219858 0.0108202)
(-0.000114022 0.000214586 0.010853)
(-0.000154403 0.000200975 0.0109028)
(-0.000198413 0.000198413 0.0109728)
(0.000200975 0.000154403 0.0109028)
(0.000165881 0.000165881 0.0108291)
(0.000124578 0.000175728 0.0107751)
(7.71194e-05 0.000181604 0.01074)
(2.60572e-05 0.000184646 0.0107228)
(-2.60572e-05 0.000184646 0.0107228)
(-7.71194e-05 0.000181604 0.01074)
(-0.000124578 0.000175728 0.0107751)
(-0.000165881 0.000165881 0.0108291)
(-0.000200975 0.000154403 0.0109028)
(0.000214586 0.000114022 0.010853)
(0.000175728 0.000124578 0.0107751)
(0.000131617 0.000131617 0.0107192)
(8.12318e-05 0.000135741 0.0106833)
(2.7429e-05 0.000137714 0.0106659)
(-2.7429e-05 0.000137714 0.0106659)
(-8.12319e-05 0.000135741 0.0106833)
(-0.000131617 0.000131617 0.0107192)
(-0.000175728 0.000124578 0.0107751)
(-0.000214586 0.000114022 0.010853)
(0.000219858 7.04622e-05 0.0108202)
(0.000181604 7.71194e-05 0.01074)
(0.000135741 8.12318e-05 0.0106833)
(8.36231e-05 8.36231e-05 0.0106473)
(2.82192e-05 8.47495e-05 0.0106299)
(-2.82192e-05 8.47494e-05 0.0106299)
(-8.36231e-05 8.36231e-05 0.0106473)
(-0.000135741 8.12319e-05 0.0106833)
(-0.000181604 7.71194e-05 0.01074)
(-0.000219858 7.04621e-05 0.0108202)
(0.000223001 2.36449e-05 0.0108041)
(0.000184646 2.60572e-05 0.0107228)
(0.000137714 2.7429e-05 0.0106659)
(8.47494e-05 2.82192e-05 0.0106299)
(2.85869e-05 2.85869e-05 0.0106125)
(-2.85869e-05 2.8587e-05 0.0106125)
(-8.47494e-05 2.82192e-05 0.0106299)
(-0.000137714 2.7429e-05 0.0106659)
(-0.000184646 2.60572e-05 0.0107228)
(-0.000223001 2.36449e-05 0.0108041)
(0.000223001 -2.36449e-05 0.0108041)
(0.000184646 -2.60572e-05 0.0107228)
(0.000137714 -2.7429e-05 0.0106659)
(8.47494e-05 -2.82192e-05 0.0106299)
(2.8587e-05 -2.85869e-05 0.0106125)
(-2.85869e-05 -2.85869e-05 0.0106125)
(-8.47494e-05 -2.82192e-05 0.0106299)
(-0.000137714 -2.74289e-05 0.0106659)
(-0.000184646 -2.60572e-05 0.0107228)
(-0.000223001 -2.36449e-05 0.0108041)
(0.000219858 -7.04621e-05 0.0108202)
(0.000181604 -7.71194e-05 0.01074)
(0.000135741 -8.12319e-05 0.0106833)
(8.36231e-05 -8.36231e-05 0.0106473)
(2.82192e-05 -8.47494e-05 0.0106299)
(-2.82192e-05 -8.47494e-05 0.0106299)
(-8.36231e-05 -8.36231e-05 0.0106473)
(-0.000135741 -8.12318e-05 0.0106833)
(-0.000181604 -7.71195e-05 0.01074)
(-0.000219858 -7.04622e-05 0.0108202)
(0.000214586 -0.000114022 0.010853)
(0.000175728 -0.000124578 0.0107751)
(0.000131617 -0.000131617 0.0107192)
(8.12319e-05 -0.000135741 0.0106833)
(2.7429e-05 -0.000137714 0.0106659)
(-2.74289e-05 -0.000137714 0.0106659)
(-8.12318e-05 -0.000135741 0.0106833)
(-0.000131617 -0.000131618 0.0107192)
(-0.000175728 -0.000124578 0.0107751)
(-0.000214586 -0.000114022 0.010853)
(0.000200975 -0.000154403 0.0109028)
(0.000165881 -0.000165881 0.0108291)
(0.000124578 -0.000175728 0.0107751)
(7.71195e-05 -0.000181604 0.01074)
(2.60572e-05 -0.000184646 0.0107228)
(-2.60572e-05 -0.000184646 0.0107228)
(-7.71196e-05 -0.000181604 0.01074)
(-0.000124578 -0.000175728 0.0107751)
(-0.000165881 -0.000165881 0.0108291)
(-0.000200975 -0.000154403 0.0109028)
(0.000198414 -0.000198414 0.0109728)
(0.000154403 -0.000200975 0.0109028)
(0.000114022 -0.000214586 0.010853)
(7.04621e-05 -0.000219858 0.0108202)
(2.36449e-05 -0.000223 0.0108041)
(-2.36449e-05 -0.000223001 0.0108041)
(-7.04623e-05 -0.000219858 0.0108202)
(-0.000114022 -0.000214586 0.010853)
(-0.000154403 -0.000200975 0.0109028)
(-0.000198414 -0.000198414 0.0109728)
(7.8142e-05 7.81422e-05 0.0109585)
(6.1992e-05 8.09338e-05 0.0109378)
(4.69374e-05 8.78164e-05 0.0109215)
(2.93355e-05 9.12979e-05 0.01091)
(9.9088e-06 9.32784e-05 0.0109042)
(-9.90875e-06 9.32784e-05 0.0109042)
(-2.93354e-05 9.12979e-05 0.01091)
(-4.69373e-05 8.78164e-05 0.0109215)
(-6.19921e-05 8.09338e-05 0.0109378)
(-7.8142e-05 7.8142e-05 0.0109585)
(8.09338e-05 6.19921e-05 0.0109378)
(6.91507e-05 6.91508e-05 0.0109119)
(5.34193e-05 7.52765e-05 0.010891)
(3.36605e-05 7.93483e-05 0.0108765)
(1.14773e-05 8.14945e-05 0.0108691)
(-1.14773e-05 8.14945e-05 0.0108691)
(-3.36605e-05 7.93483e-05 0.0108765)
(-5.34193e-05 7.52764e-05 0.010891)
(-6.91507e-05 6.91507e-05 0.0109119)
(-8.09337e-05 6.1992e-05 0.0109378)
(8.78165e-05 4.69373e-05 0.0109215)
(7.52765e-05 5.34193e-05 0.010891)
(5.83132e-05 5.83133e-05 0.0108668)
(3.67638e-05 6.1522e-05 0.0108501)
(1.2545e-05 6.31374e-05 0.0108417)
(-1.25449e-05 6.31374e-05 0.0108417)
(-3.67638e-05 6.1522e-05 0.0108501)
(-5.83132e-05 5.83133e-05 0.0108668)
(-7.52765e-05 5.34194e-05 0.010891)
(-8.78164e-05 4.69374e-05 0.0109215)
(9.12979e-05 2.93354e-05 0.01091)
(7.93483e-05 3.36604e-05 0.0108765)
(6.1522e-05 3.67639e-05 0.0108501)
(3.8793e-05 3.8793e-05 0.0108321)
(1.3242e-05 3.98094e-05 0.0108229)
(-1.3242e-05 3.98094e-05 0.0108229)
(-3.8793e-05 3.8793e-05 0.0108321)
(-6.1522e-05 3.67639e-05 0.0108501)
(-7.93483e-05 3.36604e-05 0.0108765)
(-9.12979e-05 2.93355e-05 0.01091)
(9.32784e-05 9.90882e-06 0.0109042)
(8.14945e-05 1.14772e-05 0.0108691)
(6.31373e-05 1.2545e-05 0.0108417)
(3.98094e-05 1.32421e-05 0.0108229)
(1.35892e-05 1.35892e-05 0.0108134)
(-1.35892e-05 1.35892e-05 0.0108134)
(-3.98094e-05 1.32421e-05 0.0108229)
(-6.31373e-05 1.2545e-05 0.0108417)
(-8.14945e-05 1.14773e-05 0.0108691)
(-9.32784e-05 9.90884e-06 0.0109042)
(9.32784e-05 -9.90873e-06 0.0109042)
(8.14945e-05 -1.14773e-05 0.0108691)
(6.31374e-05 -1.25449e-05 0.0108417)
(3.98094e-05 -1.3242e-05 0.0108229)
(1.35892e-05 -1.35892e-05 0.0108134)
(-1.35892e-05 -1.35892e-05 0.0108134)
(-3.98094e-05 -1.3242e-05 0.0108229)
(-6.31373e-05 -1.25449e-05 0.0108417)
(-8.14944e-05 -1.14773e-05 0.0108691)
(-9.32784e-05 -9.9088e-06 0.0109042)
(9.12979e-05 -2.93354e-05 0.01091)
(7.93483e-05 -3.36605e-05 0.0108765)
(6.1522e-05 -3.67638e-05 0.0108501)
(3.8793e-05 -3.8793e-05 0.0108321)
(1.3242e-05 -3.98094e-05 0.0108229)
(-1.3242e-05 -3.98094e-05 0.0108229)
(-3.8793e-05 -3.8793e-05 0.0108321)
(-6.1522e-05 -3.67638e-05 0.0108501)
(-7.93484e-05 -3.36605e-05 0.0108765)
(-9.12979e-05 -2.93355e-05 0.01091)
(8.78165e-05 -4.69374e-05 0.0109215)
(7.52765e-05 -5.34193e-05 0.010891)
(5.83133e-05 -5.83133e-05 0.0108668)
(3.67639e-05 -6.1522e-05 0.0108501)
(1.2545e-05 -6.31373e-05 0.0108417)
(-1.25449e-05 -6.31373e-05 0.0108417)
(-3.67638e-05 -6.1522e-05 0.0108501)
(-5.83134e-05 -5.83134e-05 0.0108668)
(-7.52766e-05 -5.34195e-05 0.010891)
(-8.78164e-05 -4.69373e-05 0.0109215)
(8.09338e-05 -6.19921e-05 0.0109378)
(6.91508e-05 -6.91507e-05 0.0109119)
(5.34194e-05 -7.52765e-05 0.010891)
(3.36605e-05 -7.93483e-05 0.0108765)
(1.14773e-05 -8.14945e-05 0.0108691)
(-1.14773e-05 -8.14945e-05 0.0108691)
(-3.36605e-05 -7.93483e-05 0.0108765)
(-5.34195e-05 -7.52766e-05 0.010891)
(-6.91506e-05 -6.91506e-05 0.0109119)
(-8.09337e-05 -6.19919e-05 0.0109378)
(7.81421e-05 -7.81421e-05 0.0109585)
(6.19921e-05 -8.09338e-05 0.0109378)
(4.69374e-05 -8.78164e-05 0.0109215)
(2.93355e-05 -9.12979e-05 0.01091)
(9.9088e-06 -9.32784e-05 0.0109042)
(-9.90879e-06 -9.32784e-05 0.0109042)
(-2.93355e-05 -9.12978e-05 0.01091)
(-4.69373e-05 -8.78164e-05 0.0109215)
(-6.1992e-05 -8.09337e-05 0.0109378)
(-7.81421e-05 -7.81422e-05 0.0109585)
(2.82649e-05 2.82651e-05 0.0109623)
(2.3115e-05 3.05688e-05 0.0109549)
(1.80401e-05 3.39999e-05 0.0109485)
(1.1444e-05 3.59343e-05 0.0109438)
(3.8969e-06 3.6988e-05 0.0109414)
(-3.89685e-06 3.6988e-05 0.0109414)
(-1.14439e-05 3.59343e-05 0.0109438)
(-1.804e-05 3.39999e-05 0.0109485)
(-2.3115e-05 3.05687e-05 0.0109549)
(-2.8265e-05 2.82648e-05 0.0109623)
(3.05688e-05 2.31151e-05 0.0109549)
(2.70169e-05 2.7017e-05 0.0109446)
(2.14358e-05 3.02673e-05 0.010936)
(1.37204e-05 3.24787e-05 0.0109298)
(4.71471e-06 3.36387e-05 0.0109266)
(-4.7147e-06 3.36387e-05 0.0109266)
(-1.37204e-05 3.24787e-05 0.0109298)
(-2.14359e-05 3.02672e-05 0.010936)
(-2.70169e-05 2.70169e-05 0.0109446)
(-3.05686e-05 2.3115e-05 0.0109549)
(3.39999e-05 1.80401e-05 0.0109485)
(3.02672e-05 2.14359e-05 0.010936)
(2.4081e-05 2.4081e-05 0.0109255)
(1.54269e-05 2.58693e-05 0.0109181)
(5.30606e-06 2.67823e-05 0.0109143)
(-5.30602e-06 2.67823e-05 0.0109143)
(-1.54268e-05 2.58693e-05 0.0109181)
(-2.4081e-05 2.40811e-05 0.0109255)
(-3.02672e-05 2.1436e-05 0.010936)
(-3.39998e-05 1.80401e-05 0.0109485)
(3.59343e-05 1.1444e-05 0.0109438)
(3.24787e-05 1.37204e-05 0.0109298)
(2.58693e-05 1.54269e-05 0.0109181)
(1.65872e-05 1.65872e-05 0.0109098)
(5.709e-06 1.71793e-05 0.0109056)
(-5.70895e-06 1.71793e-05 0.0109056)
(-1.65872e-05 1.65872e-05 0.0109098)
(-2.58692e-05 1.54269e-05 0.0109181)
(-3.24787e-05 1.37204e-05 0.0109298)
(-3.59343e-05 1.1444e-05 0.0109438)
(3.6988e-05 3.89689e-06 0.0109414)
(3.36387e-05 4.71468e-06 0.0109266)
(2.67822e-05 5.30606e-06 0.0109143)
(1.71793e-05 5.709e-06 0.0109056)
(5.91394e-06 5.91394e-06 0.010901)
(-5.91388e-06 5.91394e-06 0.010901)
(-1.71793e-05 5.70901e-06 0.0109056)
(-2.67822e-05 5.30608e-06 0.0109143)
(-3.36388e-05 4.71472e-06 0.0109266)
(-3.6988e-05 3.89694e-06 0.0109414)
(3.6988e-05 -3.89687e-06 0.0109414)
(3.36388e-05 -4.71469e-06 0.0109266)
(2.67823e-05 -5.30603e-06 0.0109143)
(1.71793e-05 -5.70896e-06 0.0109056)
(5.91393e-06 -5.91388e-06 0.010901)
(-5.91389e-06 -5.91389e-06 0.010901)
(-1.71792e-05 -5.70896e-06 0.0109056)
(-2.67822e-05 -5.30601e-06 0.0109143)
(-3.36387e-05 -4.71471e-06 0.0109266)
(-3.6988e-05 -3.8969e-06 0.0109414)
(3.59343e-05 -1.14439e-05 0.0109438)
(3.24787e-05 -1.37204e-05 0.0109298)
(2.58693e-05 -1.54268e-05 0.0109181)
(1.65872e-05 -1.65871e-05 0.0109098)
(5.70901e-06 -1.71793e-05 0.0109056)
(-5.70896e-06 -1.71792e-05 0.0109056)
(-1.65871e-05 -1.65872e-05 0.0109098)
(-2.58693e-05 -1.54268e-05 0.0109181)
(-3.24788e-05 -1.37205e-05 0.0109298)
(-3.59343e-05 -1.1444e-05 0.0109438)
(3.39998e-05 -1.804e-05 0.0109485)
(3.02672e-05 -2.1436e-05 0.010936)
(2.40811e-05 -2.4081e-05 0.0109255)
(1.54269e-05 -2.58692e-05 0.0109181)
(5.30607e-06 -2.67822e-05 0.0109143)
(-5.30602e-06 -2.67822e-05 0.0109143)
(-1.54268e-05 -2.58693e-05 0.0109181)
(-2.40811e-05 -2.40811e-05 0.0109255)
(-3.02673e-05 -2.14361e-05 0.010936)
(-3.39998e-05 -1.804e-05 0.0109485)
(3.05687e-05 -2.31151e-05 0.0109549)
(2.70169e-05 -2.70169e-05 0.0109446)
(2.1436e-05 -3.02672e-05 0.010936)
(1.37204e-05 -3.24787e-05 0.0109298)
(4.71471e-06 -3.36387e-05 0.0109266)
(-4.7147e-06 -3.36387e-05 0.0109266)
(-1.37205e-05 -3.24787e-05 0.0109298)
(-2.14361e-05 -3.02673e-05 0.010936)
(-2.70168e-05 -2.70168e-05 0.0109446)
(-3.05686e-05 -2.31149e-05 0.0109549)
(2.82649e-05 -2.8265e-05 0.0109623)
(2.31151e-05 -3.05687e-05 0.0109549)
(1.80401e-05 -3.39998e-05 0.0109485)
(1.1444e-05 -3.59343e-05 0.0109438)
(3.8969e-06 -3.6988e-05 0.0109414)
(-3.89685e-06 -3.6988e-05 0.0109414)
(-1.1444e-05 -3.59343e-05 0.0109438)
(-1.80401e-05 -3.39998e-05 0.0109485)
(-2.31149e-05 -3.05686e-05 0.0109549)
(-2.82649e-05 -2.8265e-05 0.0109623)
(9.82829e-06 9.82839e-06 0.0109621)
(8.19915e-06 1.09892e-05 0.0109598)
(6.53347e-06 1.24766e-05 0.0109575)
(4.18909e-06 1.33776e-05 0.0109557)
(1.43526e-06 1.38645e-05 0.0109547)
(-1.43526e-06 1.38645e-05 0.0109547)
(-4.18904e-06 1.33776e-05 0.0109557)
(-6.53338e-06 1.24768e-05 0.0109575)
(-8.19919e-06 1.09892e-05 0.0109598)
(-9.82835e-06 9.82834e-06 0.0109621)
(1.09892e-05 8.19922e-06 0.0109598)
(9.96089e-06 9.96097e-06 0.010956)
(8.07114e-06 1.14514e-05 0.0109525)
(5.23375e-06 1.24942e-05 0.01095)
(1.81032e-06 1.30441e-05 0.0109487)
(-1.81032e-06 1.30442e-05 0.0109487)
(-5.23371e-06 1.24942e-05 0.01095)
(-8.07116e-06 1.14514e-05 0.0109525)
(-9.96095e-06 9.96095e-06 0.010956)
(-1.09891e-05 8.19922e-06 0.0109598)
(1.24766e-05 6.53347e-06 0.0109575)
(1.14514e-05 8.07118e-06 0.0109525)
(9.31824e-06 9.31828e-06 0.0109482)
(6.05289e-06 1.01862e-05 0.0109451)
(2.09649e-06 1.06355e-05 0.0109434)
(-2.09644e-06 1.06355e-05 0.0109434)
(-6.05283e-06 1.01862e-05 0.0109451)
(-9.31817e-06 9.31828e-06 0.0109482)
(-1.14514e-05 8.07125e-06 0.0109525)
(-1.24767e-05 6.53351e-06 0.0109575)
(1.33776e-05 4.18906e-06 0.0109557)
(1.24942e-05 5.23377e-06 0.01095)
(1.01861e-05 6.05292e-06 0.0109451)
(6.628e-06 6.62802e-06 0.0109415)
(2.29793e-06 6.92591e-06 0.0109396)
(-2.29787e-06 6.92591e-06 0.0109396)
(-6.62796e-06 6.62802e-06 0.0109415)
(-1.01861e-05 6.05289e-06 0.0109451)
(-1.24942e-05 5.23372e-06 0.01095)
(-1.33776e-05 4.18908e-06 0.0109557)
(1.38645e-05 1.43525e-06 0.0109547)
(1.30441e-05 1.81032e-06 0.0109487)
(1.06355e-05 2.0965e-06 0.0109434)
(6.92588e-06 2.29794e-06 0.0109396)
(2.402e-06 2.40201e-06 0.0109376)
(-2.40195e-06 2.402e-06 0.0109376)
(-6.92584e-06 2.29792e-06 0.0109396)
(-1.06355e-05 2.09649e-06 0.0109434)
(-1.30441e-05 1.81033e-06 0.0109487)
(-1.38645e-05 1.4353e-06 0.0109547)
(1.38645e-05 -1.43524e-06 0.0109547)
(1.30442e-05 -1.8103e-06 0.0109487)
(1.06355e-05 -2.09643e-06 0.0109434)
(6.92588e-06 -2.29787e-06 0.0109396)
(2.40199e-06 -2.40194e-06 0.0109376)
(-2.40196e-06 -2.40195e-06 0.0109376)
(-6.92584e-06 -2.29788e-06 0.0109396)
(-1.06355e-05 -2.09645e-06 0.0109434)
(-1.30441e-05 -1.81033e-06 0.0109487)
(-1.38645e-05 -1.43526e-06 0.0109547)
(1.33777e-05 -4.18905e-06 0.0109557)
(1.24942e-05 -5.2337e-06 0.01095)
(1.01862e-05 -6.05283e-06 0.0109451)
(6.628e-06 -6.62796e-06 0.0109415)
(2.29791e-06 -6.92584e-06 0.0109396)
(-2.29789e-06 -6.92584e-06 0.0109396)
(-6.62797e-06 -6.62797e-06 0.0109415)
(-1.01862e-05 -6.05285e-06 0.0109451)
(-1.24942e-05 -5.23378e-06 0.01095)
(-1.33776e-05 -4.18909e-06 0.0109557)
(1.24768e-05 -6.53345e-06 0.0109575)
(1.14515e-05 -8.07123e-06 0.0109525)
(9.31825e-06 -9.31817e-06 0.0109482)
(6.05287e-06 -1.01861e-05 0.0109451)
(2.09648e-06 -1.06355e-05 0.0109434)
(-2.09645e-06 -1.06355e-05 0.0109434)
(-6.05285e-06 -1.01862e-05 0.0109451)
(-9.31828e-06 -9.31828e-06 0.0109482)
(-1.14514e-05 -8.07134e-06 0.0109525)
(-1.24767e-05 -6.53347e-06 0.0109575)
(1.09892e-05 -8.19924e-06 0.0109598)
(9.96101e-06 -9.96104e-06 0.010956)
(8.07126e-06 -1.14514e-05 0.0109525)
(5.23369e-06 -1.24942e-05 0.01095)
(1.81032e-06 -1.30441e-05 0.0109487)
(-1.81033e-06 -1.30441e-05 0.0109487)
(-5.23377e-06 -1.24942e-05 0.01095)
(-8.07134e-06 -1.14515e-05 0.0109525)
(-9.96093e-06 -9.96098e-06 0.010956)
(-1.09891e-05 -8.19918e-06 0.0109598)
(9.82832e-06 -9.82835e-06 0.0109621)
(8.19924e-06 -1.09892e-05 0.0109598)
(6.53354e-06 -1.24768e-05 0.0109575)
(4.18909e-06 -1.33776e-05 0.0109557)
(1.4353e-06 -1.38645e-05 0.0109547)
(-1.43525e-06 -1.38645e-05 0.0109547)
(-4.18909e-06 -1.33776e-05 0.0109557)
(-6.53355e-06 -1.24767e-05 0.0109575)
(-8.19918e-06 -1.09891e-05 0.0109598)
(-9.82832e-06 -9.8283e-06 0.0109621)
(3.48467e-06 3.48479e-06 0.0109609)
(2.93455e-06 3.95874e-06 0.0109606)
(2.36345e-06 4.5419e-06 0.0109598)
(1.52335e-06 4.90907e-06 0.0109592)
(5.23632e-07 5.10774e-06 0.0109588)
(-5.23654e-07 5.10773e-06 0.0109588)
(-1.52327e-06 4.90907e-06 0.0109592)
(-2.36332e-06 4.54189e-06 0.0109598)
(-2.93456e-06 3.95879e-06 0.0109606)
(-3.48472e-06 3.4848e-06 0.0109609)
(3.95873e-06 2.93459e-06 0.0109606)
(3.63992e-06 3.63996e-06 0.0109593)
(2.98613e-06 4.24797e-06 0.010958)
(1.95159e-06 4.68269e-06 0.010957)
(6.77786e-07 4.91378e-06 0.0109565)
(-6.77815e-07 4.9138e-06 0.0109565)
(-1.95162e-06 4.68273e-06 0.010957)
(-2.98613e-06 4.24796e-06 0.010958)
(-3.63978e-06 3.63992e-06 0.0109593)
(-3.95862e-06 2.93462e-06 0.0109606)
(4.54189e-06 2.36343e-06 0.0109598)
(4.24793e-06 2.98616e-06 0.010958)
(3.5071e-06 3.50712e-06 0.0109563)
(2.29932e-06 3.87829e-06 0.0109551)
(8.0019e-07 4.07286e-06 0.0109544)
(-8.00148e-07 4.07288e-06 0.0109544)
(-2.29927e-06 3.87835e-06 0.0109551)
(-3.50704e-06 3.50719e-06 0.0109563)
(-4.24788e-06 2.98624e-06 0.010958)
(-4.54192e-06 2.36337e-06 0.0109598)
(4.90909e-06 1.52334e-06 0.0109592)
(4.68269e-06 1.95163e-06 0.010957)
(3.87826e-06 2.29935e-06 0.0109551)
(2.54963e-06 2.54965e-06 0.0109537)
(8.88558e-07 2.681e-06 0.0109529)
(-8.88501e-07 2.68101e-06 0.0109529)
(-2.5496e-06 2.54966e-06 0.0109537)
(-3.87824e-06 2.29934e-06 0.0109551)
(-4.68269e-06 1.9516e-06 0.010957)
(-4.90909e-06 1.52328e-06 0.0109592)
(5.10776e-06 5.23644e-07 0.0109588)
(4.91377e-06 6.77805e-07 0.0109565)
(4.07282e-06 8.00198e-07 0.0109544)
(2.68098e-06 8.88563e-07 0.0109529)
(9.34839e-07 9.34847e-07 0.0109521)
(-9.34784e-07 9.34844e-07 0.0109521)
(-2.68094e-06 8.88559e-07 0.0109529)
(-4.07279e-06 8.00202e-07 0.0109544)
(-4.91376e-06 6.77808e-07 0.0109565)
(-5.10775e-06 5.23677e-07 0.0109588)
(5.10776e-06 -5.23674e-07 0.0109588)
(4.91379e-06 -6.77794e-07 0.0109565)
(4.07284e-06 -8.00134e-07 0.0109544)
(2.68099e-06 -8.88491e-07 0.0109529)
(9.34839e-07 -9.34775e-07 0.0109521)
(-9.34788e-07 -9.34782e-07 0.0109521)
(-2.68094e-06 -8.88507e-07 0.0109529)
(-4.07281e-06 -8.00145e-07 0.0109544)
(-4.91376e-06 -6.77803e-07 0.0109565)
(-5.10775e-06 -5.23637e-07 0.0109588)
(4.90913e-06 -1.52332e-06 0.0109592)
(4.68275e-06 -1.95158e-06 0.010957)
(3.8783e-06 -2.29926e-06 0.0109551)
(2.54963e-06 -2.54958e-06 0.0109537)
(8.88547e-07 -2.68094e-06 0.0109529)
(-8.88517e-07 -2.68095e-06 0.0109529)
(-2.5496e-06 -2.5496e-06 0.0109537)
(-3.87826e-06 -2.29928e-06 0.0109551)
(-4.6827e-06 -1.95163e-06 0.010957)
(-4.90909e-06 -1.52331e-06 0.0109592)
(4.54198e-06 -2.36332e-06 0.0109598)
(4.24802e-06 -2.9862e-06 0.010958)
(3.50714e-06 -3.50707e-06 0.0109563)
(2.2993e-06 -3.87825e-06 0.0109551)
(8.00179e-07 -4.07282e-06 0.0109544)
(-8.00156e-07 -4.07283e-06 0.0109544)
(-2.29928e-06 -3.87829e-06 0.0109551)
(-3.50714e-06 -3.50714e-06 0.0109563)
(-4.24796e-06 -2.98635e-06 0.010958)
(-4.54188e-06 -2.36339e-06 0.0109598)
(3.95872e-06 -2.93453e-06 0.0109606)
(3.63992e-06 -3.63996e-06 0.0109593)
(2.98625e-06 -4.24799e-06 0.010958)
(1.95158e-06 -4.68273e-06 0.010957)
(6.77793e-07 -4.91377e-06 0.0109565)
(-6.7781e-07 -4.91378e-06 0.0109565)
(-1.95161e-06 -4.68271e-06 0.010957)
(-2.98632e-06 -4.24798e-06 0.010958)
(-3.63986e-06 -3.63992e-06 0.0109593)
(-3.95856e-06 -2.93456e-06 0.0109606)
(3.48468e-06 -3.48473e-06 0.0109609)
(2.93454e-06 -3.95867e-06 0.0109606)
(2.36345e-06 -4.54193e-06 0.0109598)
(1.52335e-06 -4.90909e-06 0.0109592)
(5.23669e-07 -5.10775e-06 0.0109588)
(-5.23649e-07 -5.10775e-06 0.0109588)
(-1.5233e-06 -4.90907e-06 0.0109592)
(-2.36344e-06 -4.54191e-06 0.0109598)
(-2.93454e-06 -3.9586e-06 0.0109606)
(-3.48465e-06 -3.4847e-06 0.0109609)
(1.25062e-06 1.25055e-06 0.0109604)
(1.05912e-06 1.43417e-06 0.0109607)
(8.58479e-07 1.65573e-06 0.0109605)
(5.55066e-07 1.79811e-06 0.0109603)
(1.9116e-07 1.87522e-06 0.0109602)
(-1.9123e-07 1.87522e-06 0.0109602)
(-5.55078e-07 1.79813e-06 0.0109603)
(-8.58421e-07 1.65584e-06 0.0109605)
(-1.05906e-06 1.43432e-06 0.0109607)
(-1.25054e-06 1.25077e-06 0.0109604)
(1.43415e-06 1.05911e-06 0.0109607)
(1.32991e-06 1.32989e-06 0.0109603)
(1.09942e-06 1.56627e-06 0.0109599)
(7.22048e-07 1.73754e-06 0.0109595)
(2.51394e-07 1.82906e-06 0.0109593)
(-2.51405e-07 1.82909e-06 0.0109593)
(-7.2201e-07 1.73762e-06 0.0109595)
(-1.09937e-06 1.56641e-06 0.0109599)
(-1.32984e-06 1.33006e-06 0.0109603)
(-1.43422e-06 1.05917e-06 0.0109607)
(1.65564e-06 8.58482e-07 0.0109605)
(1.56627e-06 1.09942e-06 0.0109599)
(1.30498e-06 1.30496e-06 0.0109592)
(8.60645e-07 1.45357e-06 0.0109588)
(3.00437e-07 1.53213e-06 0.0109585)
(-3.00377e-07 1.53216e-06 0.0109585)
(-8.60543e-07 1.45362e-06 0.0109588)
(-1.30482e-06 1.30499e-06 0.0109592)
(-1.5663e-06 1.09949e-06 0.0109599)
(-1.65583e-06 8.58414e-07 0.0109605)
(1.79806e-06 5.551e-07 0.0109603)
(1.73753e-06 7.22105e-07 0.0109595)
(1.45357e-06 8.60664e-07 0.0109588)
(9.62029e-07 9.62041e-07 0.0109582)
(3.36432e-07 1.01573e-06 0.0109579)
(-3.36363e-07 1.01573e-06 0.0109579)
(-9.61966e-07 9.62039e-07 0.0109582)
(-1.4535e-06 8.60606e-07 0.0109588)
(-1.73755e-06 7.21976e-07 0.0109595)
(-1.79815e-06 5.55074e-07 0.0109603)
(1.87522e-06 1.91175e-07 0.0109602)
(1.82904e-06 2.51425e-07 0.0109593)
(1.53211e-06 3.00448e-07 0.0109585)
(1.01571e-06 3.36442e-07 0.0109579)
(3.55462e-07 3.55472e-07 0.0109576)
(-3.554e-07 3.55463e-07 0.0109576)
(-1.01567e-06 3.3642e-07 0.0109579)
(-1.53207e-06 3.0042e-07 0.0109585)
(-1.82904e-06 2.51377e-07 0.0109593)
(-1.87523e-06 1.91224e-07 0.0109602)
(1.87521e-06 -1.91246e-07 0.0109602)
(1.82908e-06 -2.51401e-07 0.0109593)
(1.53214e-06 -3.00369e-07 0.0109585)
(1.01572e-06 -3.36357e-07 0.0109579)
(3.55453e-07 -3.55396e-07 0.0109576)
(-3.55414e-07 -3.55407e-07 0.0109576)
(-1.01568e-06 -3.36389e-07 0.0109579)
(-1.53209e-06 -3.00401e-07 0.0109585)
(-1.82903e-06 -2.51423e-07 0.0109593)
(-1.87523e-06 -1.91188e-07 0.0109602)
(1.79813e-06 -5.55046e-07 0.0109603)
(1.73763e-06 -7.2199e-07 0.0109595)
(1.4536e-06 -8.60545e-07 0.0109588)
(9.62017e-07 -9.61981e-07 0.0109582)
(3.36411e-07 -1.01567e-06 0.0109579)
(-3.36393e-07 -1.01567e-06 0.0109579)
(-9.61992e-07 -9.61991e-07 0.0109582)
(-1.45355e-06 -8.60594e-07 0.0109588)
(-1.73754e-06 -7.22075e-07 0.0109595)
(-1.7981e-06 -5.55062e-07 0.0109603)
(1.65585e-06 -8.58359e-07 0.0109605)
(1.56637e-06 -1.09938e-06 0.0109599)
(1.30494e-06 -1.30487e-06 0.0109592)
(8.60591e-07 -1.45354e-06 0.0109588)
(3.0043e-07 -1.53208e-06 0.0109585)
(-3.00401e-07 -1.53209e-06 0.0109585)
(-8.60598e-07 -1.45357e-06 0.0109588)
(-1.30498e-06 -1.30498e-06 0.0109592)
(-1.5663e-06 -1.09956e-06 0.0109599)
(-1.65572e-06 -8.58443e-07 0.0109605)
(1.43438e-06 -1.05917e-06 0.0109607)
(1.32997e-06 -1.33e-06 0.0109603)
(1.09944e-06 -1.56636e-06 0.0109599)
(7.22002e-07 -1.73755e-06 0.0109595)
(2.51408e-07 -1.82902e-06 0.0109593)
(-2.5143e-07 -1.82903e-06 0.0109593)
(-7.22084e-07 -1.73753e-06 0.0109595)
(-1.09954e-06 -1.56628e-06 0.0109599)
(-1.32984e-06 -1.32985e-06 0.0109603)
(-1.43408e-06 -1.05913e-06 0.0109607)
(1.25071e-06 -1.25067e-06 0.0109604)
(1.05916e-06 -1.43427e-06 0.0109607)
(8.58534e-07 -1.65582e-06 0.0109605)
(5.55136e-07 -1.79812e-06 0.0109603)
(1.91234e-07 -1.87522e-06 0.0109602)
(-1.91198e-07 -1.87522e-06 0.0109602)
(-5.55046e-07 -1.79808e-06 0.0109603)
(-8.58444e-07 -1.65571e-06 0.0109605)
(-1.05915e-06 -1.43408e-06 0.0109607)
(-1.25059e-06 -1.25058e-06 0.0109604)
(4.51244e-07 4.51129e-07 0.0109602)
(3.83395e-07 5.20514e-07 0.0109607)
(3.1195e-07 6.03426e-07 0.0109607)
(2.02089e-07 6.57347e-07 0.0109607)
(6.96703e-08 6.86582e-07 0.0109606)
(-6.97188e-08 6.86578e-07 0.0109606)
(-2.02065e-07 6.57322e-07 0.0109607)
(-3.1187e-07 6.03405e-07 0.0109607)
(-3.83354e-07 5.20606e-07 0.0109607)
(-4.51166e-07 4.51344e-07 0.0109602)
(5.20494e-07 3.83353e-07 0.0109607)
(4.85214e-07 4.85173e-07 0.0109607)
(4.03097e-07 5.74893e-07 0.0109605)
(2.65566e-07 6.40438e-07 0.0109604)
(9.26092e-08 6.75602e-07 0.0109603)
(-9.26254e-08 6.75625e-07 0.0109603)
(-2.65569e-07 6.40482e-07 0.0109604)
(-4.03044e-07 5.74926e-07 0.0109605)
(-4.85111e-07 4.85244e-07 0.0109607)
(-5.20506e-07 3.83431e-07 0.0109607)
(6.03373e-07 3.11962e-07 0.0109607)
(5.74921e-07 4.03095e-07 0.0109605)
(4.81838e-07 4.81828e-07 0.0109603)
(3.19011e-07 5.39307e-07 0.0109601)
(1.11591e-07 5.69882e-07 0.01096)
(-1.11566e-07 5.69894e-07 0.01096)
(-3.18974e-07 5.39352e-07 0.0109601)
(-4.81727e-07 4.81864e-07 0.0109603)
(-5.74843e-07 4.03128e-07 0.0109605)
(-6.03455e-07 3.11938e-07 0.0109607)
(6.57331e-07 2.02121e-07 0.0109607)
(6.40453e-07 2.65588e-07 0.0109604)
(5.39311e-07 3.19014e-07 0.0109601)
(3.58539e-07 3.58544e-07 0.0109599)
(1.25683e-07 3.79617e-07 0.0109598)
(-1.25639e-07 3.79622e-07 0.0109598)
(-3.5851e-07 3.58567e-07 0.0109599)
(-5.39264e-07 3.1902e-07 0.0109601)
(-6.40408e-07 2.65527e-07 0.0109604)
(-6.57339e-07 2.02069e-07 0.0109607)
(6.86597e-07 6.96792e-08 0.0109606)
(6.75601e-07 9.26068e-08 0.0109603)
(5.69876e-07 1.1159e-07 0.01096)
(3.79614e-07 1.25689e-07 0.0109598)
(1.33186e-07 1.3319e-07 0.0109597)
(-1.33133e-07 1.33188e-07 0.0109597)
(-3.79573e-07 1.25691e-07 0.0109598)
(-5.69843e-07 1.11609e-07 0.01096)
(-6.75573e-07 9.26138e-08 0.0109603)
(-6.86577e-07 6.97011e-08 0.0109606)
(6.8658e-07 -6.97199e-08 0.0109606)
(6.75629e-07 -9.26079e-08 0.0109603)
(5.69905e-07 -1.11546e-07 0.01096)
(3.79621e-07 -1.25633e-07 0.0109598)
(1.33183e-07 -1.33131e-07 0.0109597)
(-1.33138e-07 -1.33137e-07 0.0109597)
(-3.7957e-07 -1.25646e-07 0.0109598)
(-5.69852e-07 -1.11561e-07 0.01096)
(-6.75583e-07 -9.26255e-08 0.0109603)
(-6.8658e-07 -6.96829e-08 0.0109606)
(6.57355e-07 -2.02054e-07 0.0109607)
(6.40498e-07 -2.65513e-07 0.0109604)
(5.39335e-07 -3.18962e-07 0.0109601)
(3.58546e-07 -3.58513e-07 0.0109599)
(1.25682e-07 -3.7957e-07 0.0109598)
(-1.25648e-07 -3.79576e-07 0.0109598)
(-3.58514e-07 -3.58525e-07 0.0109599)
(-5.39306e-07 -3.18985e-07 0.0109601)
(-6.40422e-07 -2.65561e-07 0.0109604)
(-6.57315e-07 -2.02026e-07 0.0109607)
(6.03475e-07 -3.11866e-07 0.0109607)
(5.74936e-07 -4.03108e-07 0.0109605)
(4.81821e-07 -4.81806e-07 0.0109603)
(3.19011e-07 -5.39279e-07 0.0109601)
(1.11601e-07 -5.69839e-07 0.01096)
(-1.11575e-07 -5.6986e-07 0.01096)
(-3.18979e-07 -5.39319e-07 0.0109601)
(-4.81805e-07 -4.81816e-07 0.0109603)
(-5.74839e-07 -4.03104e-07 0.0109605)
(-6.03396e-07 -3.11897e-07 0.0109607)
(5.2051e-07 -3.83345e-07 0.0109607)
(4.85175e-07 -4.85181e-07 0.0109607)
(4.03155e-07 -5.74844e-07 0.0109605)
(2.65594e-07 -6.40385e-07 0.0109604)
(9.26126e-08 -6.75562e-07 0.0109603)
(-9.26461e-08 -6.75573e-07 0.0109603)
(-2.65552e-07 -6.40415e-07 0.0109604)
(-4.03093e-07 -5.74868e-07 0.0109605)
(-4.85125e-07 -4.8516e-07 0.0109607)
(-5.20485e-07 -3.83446e-07 0.0109607)
(4.51153e-07 -4.51149e-07 0.0109602)
(3.83418e-07 -5.204e-07 0.0109607)
(3.11988e-07 -6.03351e-07 0.0109607)
(2.02071e-07 -6.57319e-07 0.0109607)