/*--------------------------------*- C++ -*----------------------------------*\
| =========                 |                                                 |
| \\      /  F ield         | OpenFOAM: The Open Source CFD Toolbox           |
|  \\    /   O peration     | Version:  2412                                  |
|   \\  /    A nd           | Website:  www.openfoam.com                      |
|    \\/     M anipulation  |                                                 |
\*---------------------------------------------------------------------------*/
FoamFile
{
    version     2.0;
    format      ascii;
    arch        "LSB;label=32;scalar=64";
    class       surfaceScalarField;
    location    "5.2";
    object      phi;
}
// * * * * * * * * * * * * * * * * * * * * * * * * * * * * * * * * * * * * * //

dimensions      [0 3 -1 0 0 0 0];

oriented        oriented;

internalField   nonuniform List<scalar> 
43700
(
1.85991e-07
1.85991e-07
5.49737e-07
-2.2585e-07
-2.2585e-07
1.37749e-07
1.6531e-07
5.941e-07
-2.01784e-07
9.12712e-08
1.51887e-07
6.25627e-07
-1.91606e-07
4.52947e-08
1.42886e-07
6.45839e-07
-1.83037e-07
4.24117e-17
1.38538e-07
6.55755e-07
-1.7907e-07
-4.52947e-08
1.38538e-07
6.55755e-07
-1.7907e-07
-9.12712e-08
1.42886e-07
6.45839e-07
-1.83037e-07
-1.37749e-07
1.51887e-07
6.25627e-07
-1.91606e-07
-1.85991e-07
1.6531e-07
5.941e-07
-2.01784e-07
1.85991e-07
5.49737e-07
-2.2585e-07
-2.2585e-07
1.6531e-07
1.37749e-07
5.941e-07
-2.01784e-07
1.22933e-07
1.22933e-07
6.30598e-07
8.09236e-08
1.11578e-07
6.56008e-07
4.00374e-08
1.03959e-07
6.7231e-07
5.46936e-16
1.00221e-07
6.80327e-07
-4.00374e-08
1.00221e-07
6.80327e-07
-8.09236e-08
1.03959e-07
6.7231e-07
-1.22933e-07
1.11578e-07
6.56008e-07
-1.6531e-07
1.22933e-07
6.30598e-07
1.37749e-07
5.941e-07
-2.01784e-07
1.51887e-07
9.12712e-08
6.25627e-07
-1.91606e-07
1.11578e-07
8.09236e-08
6.56008e-07
7.29016e-08
7.29016e-08
6.77226e-07
3.59378e-08
6.7518e-08
6.90968e-07
3.36723e-16
6.48654e-08
6.97771e-07
-3.59378e-08
6.48654e-08
6.97771e-07
-7.29016e-08
6.7518e-08
6.90968e-07
-1.11578e-07
7.29016e-08
6.77226e-07
-1.51887e-07
8.09236e-08
6.56008e-07
9.12712e-08
6.25627e-07
-1.91606e-07
1.42886e-07
4.52947e-08
6.45839e-07
-1.83037e-07
1.03959e-07
4.00374e-08
6.7231e-07
6.7518e-08
3.59378e-08
6.90968e-07
3.31781e-08
3.31781e-08
7.03183e-07
-1.52419e-16
3.18151e-08
7.0927e-07
-3.31781e-08
3.18151e-08
7.0927e-07
-6.7518e-08
3.31781e-08
7.03183e-07
-1.03959e-07
3.59378e-08
6.90968e-07
-1.42886e-07
4.00374e-08
6.7231e-07
4.52947e-08
6.45839e-07
-1.83037e-07
1.38538e-07
1.54927e-16
6.55755e-07
-1.7907e-07
1.00221e-07
6.98376e-17
6.80327e-07
6.48654e-08
-2.33941e-17
6.97771e-07
3.18151e-08
4.03798e-17
7.0927e-07
-1.67066e-16
-2.99184e-17
7.15023e-07
-3.18151e-08
-1.99142e-16
7.15023e-07
-6.48654e-08
-1.12516e-16
7.0927e-07
-1.00221e-07
-1.00117e-16
6.97771e-07
-1.38538e-07
-2.85582e-16
6.80327e-07
1.69386e-16
6.55755e-07
-1.7907e-07
1.38538e-07
-4.52947e-08
6.55755e-07
-1.7907e-07
1.00221e-07
-4.00374e-08
6.80327e-07
6.48654e-08
-3.59378e-08
6.97771e-07
3.18151e-08
-3.31781e-08
7.0927e-07
-3.45015e-16
-3.18151e-08
7.15023e-07
-3.18151e-08
-3.18151e-08
7.15023e-07
-6.48654e-08
-3.31781e-08
7.0927e-07
-1.00221e-07
-3.59378e-08
6.97771e-07
-1.38538e-07
-4.00374e-08
6.80327e-07
-4.52947e-08
6.55755e-07
-1.7907e-07
1.42886e-07
-9.12712e-08
6.45839e-07
-1.83037e-07
1.03959e-07
-8.09236e-08
6.7231e-07
6.7518e-08
-7.29016e-08
6.90968e-07
3.31781e-08
-6.7518e-08
7.03183e-07
-7.59677e-17
-6.48654e-08
7.0927e-07
-3.31781e-08
-6.48654e-08
7.0927e-07
-6.7518e-08
-6.7518e-08
7.03183e-07
-1.03959e-07
-7.29016e-08
6.90968e-07
-1.42886e-07
-8.09236e-08
6.7231e-07
-9.12712e-08
6.45839e-07
-1.83037e-07
1.51887e-07
-1.37749e-07
6.25627e-07
-1.91606e-07
1.11578e-07
-1.22933e-07
6.56008e-07
7.29016e-08
-1.11578e-07
6.77226e-07
3.59378e-08
-1.03959e-07
6.90968e-07
-1.67994e-16
-1.00221e-07
6.97771e-07
-3.59378e-08
-1.00221e-07
6.97771e-07
-7.29016e-08
-1.03959e-07
6.90968e-07
-1.11578e-07
-1.11578e-07
6.77226e-07
-1.51887e-07
-1.22933e-07
6.56008e-07
-1.37749e-07
6.25627e-07
-1.91606e-07
1.6531e-07
-1.85991e-07
5.941e-07
-2.01784e-07
1.22933e-07
-1.6531e-07
6.30598e-07
8.09236e-08
-1.51887e-07
6.56008e-07
4.00374e-08
-1.42886e-07
6.7231e-07
-7.67382e-17
-1.38538e-07
6.80327e-07
-4.00374e-08
-1.38538e-07
6.80327e-07
-8.09236e-08
-1.42886e-07
6.7231e-07
-1.22933e-07
-1.51887e-07
6.56008e-07
-1.6531e-07
-1.6531e-07
6.30598e-07
-1.85991e-07
5.941e-07
-2.01784e-07
1.85991e-07
5.49737e-07
-2.2585e-07
-2.2585e-07
1.37749e-07
5.941e-07
-2.01784e-07
9.12712e-08
6.25627e-07
-1.91606e-07
4.52947e-08
6.45839e-07
-1.83037e-07
5.34511e-16
6.55755e-07
-1.7907e-07
-4.52947e-08
6.55755e-07
-1.7907e-07
-9.12712e-08
6.45839e-07
-1.83037e-07
-1.37749e-07
6.25627e-07
-1.91606e-07
-1.85991e-07
5.941e-07
-2.01784e-07
5.49737e-07
-2.2585e-07
-2.2585e-07
1.12379e-07
1.12379e-07
5.84157e-07
-1.29588e-07
-1.29588e-07
8.80832e-08
1.09896e-07
6.37532e-07
-1.29033e-07
6.01629e-08
1.07056e-07
6.7427e-07
-1.27779e-07
3.0398e-08
1.0454e-07
6.97121e-07
-1.26057e-07
2.5249e-17
1.033e-07
7.08121e-07
-1.25267e-07
-3.0398e-08
1.033e-07
7.08121e-07
-1.25267e-07
-6.01629e-08
1.0454e-07
6.97121e-07
-1.26057e-07
-8.80832e-08
1.07056e-07
6.7427e-07
-1.27779e-07
-1.12379e-07
1.09896e-07
6.37532e-07
-1.29033e-07
1.12379e-07
5.84157e-07
-1.29588e-07
-1.29588e-07
1.09896e-07
8.80832e-08
6.37532e-07
-1.29033e-07
8.49414e-08
8.49414e-08
6.80508e-07
5.75031e-08
8.18645e-08
7.08638e-07
2.89314e-08
7.94879e-08
7.25934e-07
5.95384e-16
7.82999e-08
7.34259e-07
-2.89314e-08
7.82999e-08
7.34259e-07
-5.75031e-08
7.94879e-08
7.25934e-07
-8.49413e-08
8.18645e-08
7.08638e-07
-1.09896e-07
8.49414e-08
6.80508e-07
8.80832e-08
6.37532e-07
-1.29033e-07
1.07056e-07
6.01629e-08
6.7427e-07
-1.27779e-07
8.18645e-08
5.75031e-08
7.08638e-07
5.50798e-08
5.50798e-08
7.30796e-07
2.76484e-08
5.33253e-08
7.44561e-07
2.98903e-16
5.24508e-08
7.51269e-07
-2.76484e-08
5.24508e-08
7.51269e-07
-5.50798e-08
5.33253e-08
7.44561e-07
-8.18645e-08
5.50798e-08
7.30796e-07
-1.07056e-07
5.75031e-08
7.08638e-07
6.01629e-08
6.7427e-07
-1.27779e-07
1.0454e-07
3.0398e-08
6.97121e-07
-1.26057e-07
7.94879e-08
2.89314e-08
7.25934e-07
5.33253e-08
2.76484e-08
7.44561e-07
2.67421e-08
2.67421e-08
7.56349e-07
1.94483e-16
2.62907e-08
7.62173e-07
-2.67421e-08
2.62907e-08
7.62173e-07
-5.33253e-08
2.67421e-08
7.56349e-07
-7.94879e-08
2.76484e-08
7.44561e-07
-1.0454e-07
2.89314e-08
7.25934e-07
3.0398e-08
6.97121e-07
-1.26057e-07
1.033e-07
-5.18017e-16
7.08121e-07
-1.25267e-07
7.82999e-08
5.27415e-16
7.34259e-07
5.24508e-08
4.3979e-16
7.51269e-07
2.62907e-08
1.39041e-16
7.62173e-07
6.4792e-16
4.01072e-16
7.67604e-07
-2.62907e-08
6.29272e-16
7.67604e-07
-5.24508e-08
6.18128e-16
7.62173e-07
-7.82999e-08
4.89873e-16
7.51269e-07
-1.033e-07
4.70233e-17
7.34259e-07
-1.43416e-16
7.08121e-07
-1.25267e-07
1.033e-07
-3.0398e-08
7.08121e-07
-1.25267e-07
7.82999e-08
-2.89314e-08
7.34259e-07
5.24508e-08
-2.76484e-08
7.51269e-07
2.62907e-08
-2.67421e-08
7.62173e-07
7.60521e-16
-2.62907e-08
7.67604e-07
-2.62907e-08
-2.62907e-08
7.67604e-07
-5.24508e-08
-2.67421e-08
7.62173e-07
-7.82999e-08
-2.76484e-08
7.51269e-07
-1.033e-07
-2.89314e-08
7.34259e-07
-3.0398e-08
7.08121e-07
-1.25267e-07
1.0454e-07
-6.01629e-08
6.97121e-07
-1.26057e-07
7.94879e-08
-5.75031e-08
7.25934e-07
5.33253e-08
-5.50798e-08
7.44561e-07
2.67421e-08
-5.33253e-08
7.56349e-07
1.0064e-15
-5.24508e-08
7.62173e-07
-2.67421e-08
-5.24508e-08
7.62173e-07
-5.33253e-08
-5.33253e-08
7.56349e-07
-7.94879e-08
-5.50798e-08
7.44561e-07
-1.0454e-07
-5.75031e-08
7.25934e-07
-6.01629e-08
6.97121e-07
-1.26057e-07
1.07056e-07
-8.80832e-08
6.7427e-07
-1.27779e-07
8.18645e-08
-8.49413e-08
7.08638e-07
5.50798e-08
-8.18645e-08
7.30796e-07
2.76484e-08
-7.94879e-08
7.44561e-07
5.2286e-16
-7.82999e-08
7.51269e-07
-2.76484e-08
-7.82999e-08
7.51269e-07
-5.50798e-08
-7.94879e-08
7.44561e-07
-8.18645e-08
-8.18645e-08
7.30796e-07
-1.07056e-07
-8.49413e-08
7.08638e-07
-8.80832e-08
6.7427e-07
-1.27779e-07
1.09896e-07
-1.12379e-07
6.37532e-07
-1.29033e-07
8.49413e-08
-1.09896e-07
6.80508e-07
5.75031e-08
-1.07056e-07
7.08638e-07
2.89314e-08
-1.0454e-07
7.25934e-07
-4.46661e-16
-1.033e-07
7.34259e-07
-2.89314e-08
-1.033e-07
7.34259e-07
-5.75031e-08
-1.0454e-07
7.25934e-07
-8.49413e-08
-1.07056e-07
7.08638e-07
-1.09896e-07
-1.09896e-07
6.80508e-07
-1.12379e-07
6.37532e-07
-1.29033e-07
1.12379e-07
5.84157e-07
-1.29588e-07
-1.29588e-07
8.80832e-08
6.37532e-07
-1.29033e-07
6.01629e-08
6.7427e-07
-1.27779e-07
3.0398e-08
6.97121e-07
-1.26057e-07
-5.55831e-16
7.08121e-07
-1.25267e-07
-3.0398e-08
7.08121e-07
-1.25267e-07
-6.01629e-08
6.97121e-07
-1.26057e-07
-8.80832e-08
6.7427e-07
-1.27779e-07
-1.12379e-07
6.37532e-07
-1.29033e-07
5.84157e-07
-1.29588e-07
-1.29588e-07
7.36405e-08
7.36405e-08
5.92903e-07
-7.80136e-08
-7.80136e-08
6.16128e-08
7.74838e-08
6.54945e-07
-8.28683e-08
4.39378e-08
7.92569e-08
6.97931e-07
-8.52422e-08
2.27869e-08
7.98374e-08
7.24768e-07
-8.63337e-08
-8.46673e-16
8.0048e-08
7.37695e-07
-8.68351e-08
-2.27869e-08
8.0048e-08
7.37695e-07
-8.68351e-08
-4.39378e-08
7.98374e-08
7.24768e-07
-8.63337e-08
-6.16128e-08
7.92569e-08
6.97931e-07
-8.52422e-08
-7.36405e-08
7.74838e-08
6.54945e-07
-8.28683e-08
7.36405e-08
5.92903e-07
-7.80136e-08
-7.80136e-08
7.74838e-08
6.16128e-08
6.54945e-07
-8.28683e-08
6.4259e-08
6.4259e-08
7.06958e-07
4.56586e-08
6.53875e-08
7.41107e-07
2.36394e-08
6.56672e-08
7.62123e-07
1.79735e-15
6.57172e-08
7.72229e-07
-2.36394e-08
6.57172e-08
7.72229e-07
-4.56585e-08
6.56672e-08
7.62123e-07
-6.4259e-08
6.53875e-08
7.41107e-07
-7.74838e-08
6.4259e-08
7.06958e-07
6.16128e-08
6.54945e-07
-8.28683e-08
7.92569e-08
4.39378e-08
6.97931e-07
-8.52422e-08
6.53875e-08
4.56586e-08
7.41107e-07
4.63226e-08
4.63226e-08
7.68926e-07
2.39571e-08
4.64431e-08
7.86151e-07
1.22732e-15
4.64298e-08
7.94513e-07
-2.39571e-08
4.64298e-08
7.94513e-07
-4.63226e-08
4.64431e-08
7.86151e-07
-6.53875e-08
4.63226e-08
7.68926e-07
-7.92569e-08
4.56585e-08
7.41107e-07
4.39378e-08
6.97931e-07
-8.52422e-08
7.98374e-08
2.27869e-08
7.24768e-07
-8.63337e-08
6.56672e-08
2.36394e-08
7.62123e-07
4.64431e-08
2.39571e-08
7.86151e-07
2.40043e-08
2.40043e-08
8.01227e-07
9.15515e-16
2.39866e-08
8.0862e-07
-2.40043e-08
2.39866e-08
8.0862e-07
-4.64431e-08
2.40043e-08
8.01227e-07
-6.56672e-08
2.39571e-08
7.86151e-07
-7.98374e-08
2.36394e-08
7.62123e-07
2.27869e-08
7.24768e-07
-8.63337e-08
8.0048e-08
-3.72255e-16
7.37695e-07
-8.68351e-08
6.57172e-08
2.17023e-15
7.72229e-07
4.64298e-08
1.81146e-15
7.94513e-07
2.39866e-08
1.1583e-15
8.0862e-07
8.57768e-16
9.48669e-16
8.15577e-07
-2.39866e-08
9.72166e-16
8.15577e-07
-4.64298e-08
6.01121e-16
8.0862e-07
-6.57172e-08
1.25404e-16
7.94513e-07
-8.0048e-08
-1.52841e-15
7.72229e-07
-1.63328e-15
7.37695e-07
-8.68351e-08
8.0048e-08
-2.27869e-08
7.37695e-07
-8.68351e-08
6.57172e-08
-2.36394e-08
7.72229e-07
4.64298e-08
-2.39571e-08
7.94513e-07
2.39866e-08
-2.40043e-08
8.0862e-07
6.74353e-16
-2.39866e-08
8.15577e-07
-2.39866e-08
-2.39866e-08
8.15577e-07
-4.64298e-08
-2.40043e-08
8.0862e-07
-6.57172e-08
-2.39571e-08
7.94513e-07
-8.0048e-08
-2.36394e-08
7.72229e-07
-2.27869e-08
7.37695e-07
-8.68351e-08
7.98374e-08
-4.39378e-08
7.24768e-07
-8.63337e-08
6.56672e-08
-4.56585e-08
7.62123e-07
4.64431e-08
-4.63226e-08
7.86151e-07
2.40043e-08
-4.64431e-08
8.01227e-07
5.28704e-16
-4.64298e-08
8.0862e-07
-2.40043e-08
-4.64298e-08
8.0862e-07
-4.64431e-08
-4.64431e-08
8.01227e-07
-6.56672e-08
-4.63226e-08
7.86151e-07
-7.98374e-08
-4.56586e-08
7.62123e-07
-4.39378e-08
7.24768e-07
-8.63337e-08
7.92569e-08
-6.16128e-08
6.97931e-07
-8.52422e-08
6.53875e-08
-6.4259e-08
7.41107e-07
4.63226e-08
-6.53875e-08
7.68926e-07
2.39571e-08
-6.56672e-08
7.86151e-07
8.61071e-17
-6.57172e-08
7.94513e-07
-2.39571e-08
-6.57172e-08
7.94513e-07
-4.63226e-08
-6.56672e-08
7.86151e-07
-6.53875e-08
-6.53875e-08
7.68926e-07
-7.92569e-08
-6.4259e-08
7.41107e-07
-6.16128e-08
6.97931e-07
-8.52422e-08
7.74838e-08
-7.36405e-08
6.54945e-07
-8.28683e-08
6.4259e-08
-7.74838e-08
7.06958e-07
4.56585e-08
-7.92569e-08
7.41107e-07
2.36394e-08
-7.98374e-08
7.62123e-07
-1.44309e-15
-8.0048e-08
7.72229e-07
-2.36394e-08
-8.0048e-08
7.72229e-07
-4.56586e-08
-7.98374e-08
7.62123e-07
-6.4259e-08
-7.92569e-08
7.41107e-07
-7.74838e-08
-7.74838e-08
7.06958e-07
-7.36405e-08
6.54945e-07
-8.28683e-08
7.36405e-08
5.92903e-07
-7.80136e-08
-7.80136e-08
6.16128e-08
6.54945e-07
-8.28683e-08
4.39378e-08
6.97931e-07
-8.52422e-08
2.27869e-08
7.24768e-07
-8.63337e-08
-1.28391e-15
7.37695e-07
-8.68351e-08
-2.27869e-08
7.37695e-07
-8.68351e-08
-4.39378e-08
7.24768e-07
-8.63337e-08
-6.16128e-08
6.97931e-07
-8.52422e-08
-7.36405e-08
6.54945e-07
-8.28683e-08
5.92903e-07
-7.80136e-08
-7.80136e-08
2.88827e-08
2.88827e-08
5.91938e-07
-2.84004e-08
-2.84004e-08
2.59094e-08
3.35246e-08
6.57374e-07
-3.2981e-08
1.93335e-08
3.65739e-08
7.03535e-07
-3.56021e-08
1.03098e-08
3.83722e-08
7.32746e-07
-3.73265e-08
-3.48683e-16
3.92274e-08
7.46923e-07
-3.81463e-08
-1.03098e-08
3.92274e-08
7.46923e-07
-3.81463e-08
-1.93335e-08
3.83722e-08
7.32746e-07
-3.73265e-08
-2.59094e-08
3.65739e-08
7.03535e-07
-3.56021e-08
-2.88827e-08
3.35246e-08
6.57374e-07
-3.2981e-08
2.88827e-08
5.91938e-07
-2.84004e-08
-2.84004e-08
3.35246e-08
2.59094e-08
6.57374e-07
-3.2981e-08
2.98103e-08
2.98103e-08
7.14387e-07
2.22213e-08
3.24788e-08
7.52792e-07
1.18316e-08
3.40353e-08
7.7685e-07
1.01516e-15
3.47586e-08
7.88529e-07
-1.18316e-08
3.47586e-08
7.88529e-07
-2.22213e-08
3.40353e-08
7.7685e-07
-2.98103e-08
3.24788e-08
7.52792e-07
-3.35246e-08
2.98103e-08
7.14387e-07
2.59094e-08
6.57374e-07
-3.2981e-08
3.65739e-08
1.93335e-08
7.03535e-07
-3.56021e-08
3.24788e-08
2.22213e-08
7.52792e-07
2.41645e-08
2.41645e-08
7.85554e-07
1.28513e-08
2.52858e-08
8.06214e-07
8.68977e-16
2.57969e-08
8.16327e-07
-1.28513e-08
2.57969e-08
8.16327e-07
-2.41645e-08
2.52858e-08
8.06214e-07
-3.24788e-08
2.41645e-08
7.85554e-07
-3.65739e-08
2.22213e-08
7.52792e-07
1.93335e-08
7.03535e-07
-3.56021e-08
3.83722e-08
1.03098e-08
7.32746e-07
-3.73265e-08
3.40353e-08
1.18316e-08
7.7685e-07
2.52858e-08
1.28513e-08
8.06214e-07
1.3436e-08
1.3436e-08
8.24926e-07
6.99843e-16
1.36993e-08
8.34154e-07
-1.3436e-08
1.36993e-08
8.34154e-07
-2.52858e-08
1.3436e-08
8.24926e-07
-3.40353e-08
1.28513e-08
8.06214e-07
-3.83722e-08
1.18316e-08
7.7685e-07
1.03098e-08
7.32746e-07
-3.73265e-08
3.92274e-08
1.07564e-15
7.46923e-07
-3.81463e-08
3.47586e-08
1.21021e-15
7.88529e-07
2.57969e-08
7.14872e-16
8.16327e-07
1.36993e-08
6.6562e-16
8.34154e-07
7.87631e-16
7.96041e-16
8.42976e-07
-1.36993e-08
1.18644e-15
8.42976e-07
-2.57969e-08
1.2904e-15
8.34154e-07
-3.47586e-08
9.55826e-16
8.16327e-07
-3.92274e-08
-1.60631e-15
7.88529e-07
-1.95476e-15
7.46923e-07
-3.81463e-08
3.92274e-08
-1.03098e-08
7.46923e-07
-3.81463e-08
3.47586e-08
-1.18316e-08
7.88529e-07
2.57969e-08
-1.28513e-08
8.16327e-07
1.36993e-08
-1.3436e-08
8.34154e-07
1.149e-15
-1.36993e-08
8.42976e-07
-1.36993e-08
-1.36993e-08
8.42976e-07
-2.57969e-08
-1.3436e-08
8.34154e-07
-3.47586e-08
-1.28513e-08
8.16327e-07
-3.92274e-08
-1.18316e-08
7.88529e-07
-1.03098e-08
7.46923e-07
-3.81463e-08
3.83722e-08
-1.93335e-08
7.32746e-07
-3.73265e-08
3.40353e-08
-2.22213e-08
7.7685e-07
2.52858e-08
-2.41645e-08
8.06214e-07
1.3436e-08
-2.52858e-08
8.24926e-07
1.18757e-15
-2.57969e-08
8.34154e-07
-1.3436e-08
-2.57969e-08
8.34154e-07
-2.52858e-08
-2.52858e-08
8.24926e-07
-3.40353e-08
-2.41645e-08
8.06214e-07
-3.83722e-08
-2.22213e-08
7.7685e-07
-1.93335e-08
7.32746e-07
-3.73265e-08
3.65739e-08
-2.59094e-08
7.03535e-07
-3.56021e-08
3.24788e-08
-2.98103e-08
7.52792e-07
2.41645e-08
-3.24788e-08
7.85554e-07
1.28513e-08
-3.40353e-08
8.06214e-07
9.65619e-16
-3.47586e-08
8.16327e-07
-1.28513e-08
-3.47586e-08
8.16327e-07
-2.41645e-08
-3.40353e-08
8.06214e-07
-3.24788e-08
-3.24788e-08
7.85554e-07
-3.65739e-08
-2.98103e-08
7.52792e-07
-2.59094e-08
7.03535e-07
-3.56021e-08
3.35246e-08
-2.88827e-08
6.57374e-07
-3.2981e-08
2.98103e-08
-3.35246e-08
7.14387e-07
2.22213e-08
-3.65739e-08
7.52792e-07
1.18316e-08
-3.83722e-08
7.7685e-07
-7.94011e-16
-3.92274e-08
7.88529e-07
-1.18316e-08
-3.92274e-08
7.88529e-07
-2.22213e-08
-3.83722e-08
7.7685e-07
-2.98103e-08
-3.65739e-08
7.52792e-07
-3.35246e-08
-3.35246e-08
7.14387e-07
-2.88827e-08
6.57374e-07
-3.2981e-08
2.88827e-08
5.91938e-07
-2.84004e-08
-2.84004e-08
2.59094e-08
6.57374e-07
-3.2981e-08
1.93335e-08
7.03535e-07
-3.56021e-08
1.03098e-08
7.32746e-07
-3.73265e-08
-1.63705e-15
7.46923e-07
-3.81463e-08
-1.03098e-08
7.46923e-07
-3.81463e-08
-1.93335e-08
7.32746e-07
-3.73265e-08
-2.59094e-08
7.03535e-07
-3.56021e-08
-2.88827e-08
6.57374e-07
-3.2981e-08
5.91938e-07
-2.84004e-08
-2.84004e-08
1.13923e-08
1.13923e-08
5.9024e-07
-1.05434e-08
-1.05434e-08
1.06143e-08
1.38096e-08
6.5699e-07
-1.26475e-08
8.1346e-09
1.55234e-08
7.04516e-07
-1.40249e-08
4.40765e-09
1.66198e-08
7.34825e-07
-1.49713e-08
9.62052e-17
1.71514e-08
7.49602e-07
-1.54228e-08
-4.40765e-09
1.71514e-08
7.49602e-07
-1.54228e-08
-8.1346e-09
1.66198e-08
7.34825e-07
-1.49713e-08
-1.06143e-08
1.55234e-08
7.04516e-07
-1.40249e-08
-1.13923e-08
1.38096e-08
6.5699e-07
-1.26475e-08
1.13923e-08
5.9024e-07
-1.05434e-08
-1.05434e-08
1.38096e-08
1.06143e-08
6.5699e-07
-1.26475e-08
1.28586e-08
1.28586e-08
7.16288e-07
9.86579e-09
1.44829e-08
7.56825e-07
5.34015e-09
1.54942e-08
7.82501e-07
1.8531e-15
1.59792e-08
7.95041e-07
-5.34014e-09
1.59792e-08
7.95041e-07
-9.86578e-09
1.54942e-08
7.82501e-07
-1.28586e-08
1.44829e-08
7.56825e-07
-1.38096e-08
1.28586e-08
7.16288e-07
1.06143e-08
6.5699e-07
-1.26475e-08
1.55234e-08
8.1346e-09
7.04516e-07
-1.40249e-08
1.44829e-08
9.86579e-09
7.56825e-07
1.11098e-08
1.11098e-08
7.923e-07
6.008e-09
1.18716e-08
8.14938e-07
1.52038e-15
1.22317e-08
8.26082e-07
-6.00799e-09
1.22317e-08
8.26082e-07
-1.11098e-08
1.18716e-08
8.14938e-07
-1.44829e-08
1.11098e-08
7.923e-07
-1.55234e-08
9.86578e-09
7.56825e-07
8.1346e-09
7.04516e-07
-1.40249e-08
1.66198e-08
4.40765e-09
7.34825e-07
-1.49713e-08
1.54942e-08
5.34015e-09
7.82501e-07
1.18716e-08
6.008e-09
8.14938e-07
6.41487e-09
6.41487e-09
8.3584e-07
9.12197e-16
6.60594e-09
8.46194e-07
-6.41487e-09
6.60594e-09
8.46194e-07
-1.18716e-08
6.41487e-09
8.3584e-07
-1.54942e-08
6.00799e-09
8.14938e-07
-1.66198e-08
5.34014e-09
7.82501e-07
4.40765e-09
7.34825e-07
-1.49713e-08
1.71514e-08
5.41842e-16
7.49602e-07
-1.54228e-08
1.59792e-08
1.53046e-15
7.95041e-07
1.22317e-08
1.4391e-15
8.26082e-07
6.60594e-09
1.10586e-15
8.46194e-07
7.03228e-16
1.13179e-15
8.56188e-07
-6.60594e-09
1.12529e-15
8.56188e-07
-1.22317e-08
8.47908e-16
8.46194e-07
-1.59792e-08
3.02212e-16
8.26082e-07
-1.71514e-08
-9.04247e-16
7.95041e-07
-4.2455e-16
7.49602e-07
-1.54228e-08
1.71514e-08
-4.40765e-09
7.49602e-07
-1.54228e-08
1.59792e-08
-5.34014e-09
7.95041e-07
1.22317e-08
-6.00799e-09
8.26082e-07
6.60594e-09
-6.41487e-09
8.46194e-07
6.68779e-16
-6.60594e-09
8.56188e-07
-6.60594e-09
-6.60594e-09
8.56188e-07
-1.22317e-08
-6.41487e-09
8.46194e-07
-1.59792e-08
-6.00799e-09
8.26082e-07
-1.71514e-08
-5.34014e-09
7.95041e-07
-4.40766e-09
7.49602e-07
-1.54228e-08
1.66198e-08
-8.1346e-09
7.34825e-07
-1.49713e-08
1.54942e-08
-9.86578e-09
7.82501e-07
1.18716e-08
-1.11098e-08
8.14938e-07
6.41487e-09
-1.18716e-08
8.3584e-07
4.64633e-16
-1.22317e-08
8.46194e-07
-6.41487e-09
-1.22317e-08
8.46194e-07
-1.18716e-08
-1.18716e-08
8.3584e-07
-1.54942e-08
-1.11098e-08
8.14938e-07
-1.66198e-08
-9.86579e-09
7.82501e-07
-8.1346e-09
7.34825e-07
-1.49713e-08
1.55234e-08
-1.06143e-08
7.04516e-07
-1.40249e-08
1.44829e-08
-1.28586e-08
7.56825e-07
1.11098e-08
-1.44829e-08
7.923e-07
6.00799e-09
-1.54942e-08
8.14938e-07
1.51592e-16
-1.59792e-08
8.26082e-07
-6.00799e-09
-1.59792e-08
8.26082e-07
-1.11098e-08
-1.54942e-08
8.14938e-07
-1.44829e-08
-1.44829e-08
7.923e-07
-1.55234e-08
-1.28586e-08
7.56825e-07
-1.06143e-08
7.04516e-07
-1.40249e-08
1.38096e-08
-1.13923e-08
6.5699e-07
-1.26475e-08
1.28586e-08
-1.38096e-08
7.16288e-07
9.86578e-09
-1.55234e-08
7.56825e-07
5.34014e-09
-1.66198e-08
7.82501e-07
-7.95142e-16
-1.71514e-08
7.95041e-07
-5.34014e-09
-1.71514e-08
7.95041e-07
-9.86579e-09
-1.66198e-08
7.82501e-07
-1.28586e-08
-1.55234e-08
7.56825e-07
-1.38096e-08
-1.38096e-08
7.16288e-07
-1.13923e-08
6.5699e-07
-1.26475e-08
1.13923e-08
5.9024e-07
-1.05434e-08
-1.05434e-08
1.06143e-08
6.5699e-07
-1.26475e-08
8.1346e-09
7.04516e-07
-1.40249e-08
4.40765e-09
7.34825e-07
-1.49713e-08
-6.36128e-16
7.49602e-07
-1.54228e-08
-4.40766e-09
7.49602e-07
-1.54228e-08
-8.1346e-09
7.34825e-07
-1.49713e-08
-1.06143e-08
7.04516e-07
-1.40249e-08
-1.13923e-08
6.5699e-07
-1.26475e-08
5.9024e-07
-1.05434e-08
-1.05434e-08
3.77882e-09
3.77882e-09
5.89022e-07
-3.16974e-09
-3.16974e-09
3.76398e-09
4.97327e-09
6.56154e-07
-4.12207e-09
3.00889e-09
5.86793e-09
7.04194e-07
-4.79047e-09
1.67057e-09
6.46904e-09
7.34966e-07
-5.27237e-09
3.24741e-16
6.7651e-09
7.50012e-07
-5.50384e-09
-1.67057e-09
6.7651e-09
7.50012e-07
-5.50384e-09
-3.00889e-09
6.46904e-09
7.34966e-07
-5.27237e-09
-3.76398e-09
5.86793e-09
7.04194e-07
-4.79047e-09
-3.77882e-09
4.97327e-09
6.56154e-07
-4.12207e-09
3.77882e-09
5.89022e-07
-3.16974e-09
-3.16974e-09
4.97327e-09
3.76398e-09
6.56154e-07
-4.12207e-09
4.93612e-09
4.93612e-09
7.16363e-07
3.93699e-09
5.82465e-09
7.57867e-07
2.17713e-09
6.40229e-09
7.84328e-07
5.48592e-16
6.6848e-09
7.97299e-07
-2.17713e-09
6.6848e-09
7.97299e-07
-3.93699e-09
6.40229e-09
7.84328e-07
-4.93612e-09
5.82465e-09
7.57867e-07
-4.97327e-09
4.93612e-09
7.16363e-07
3.76398e-09
6.56154e-07
-4.12207e-09
5.86793e-09
3.00889e-09
7.04194e-07
-4.79047e-09
5.82464e-09
3.93699e-09
7.57867e-07
4.63628e-09
4.63628e-09
7.94677e-07
2.55748e-09
5.08216e-09
8.18337e-07
3.29419e-16
5.29757e-09
8.30027e-07
-2.55748e-09
5.29757e-09
8.30027e-07
-4.63628e-09
5.08216e-09
8.18337e-07
-5.82465e-09
4.63628e-09
7.94677e-07
-5.86793e-09
3.93699e-09
7.57867e-07
3.00889e-09
7.04194e-07
-4.79047e-09
6.46904e-09
1.67057e-09
7.34966e-07
-5.27237e-09
6.40229e-09
2.17713e-09
7.84328e-07
5.08216e-09
2.55748e-09
8.18337e-07
2.7984e-09
2.7984e-09
8.40407e-07
5.28095e-16
2.91406e-09
8.51376e-07
-2.7984e-09
2.91406e-09
8.51376e-07
-5.08216e-09
2.7984e-09
8.40407e-07
-6.40229e-09
2.55748e-09
8.18337e-07
-6.46904e-09
2.17713e-09
7.84328e-07
1.67057e-09
7.34966e-07
-5.27237e-09
6.7651e-09
4.56978e-16
7.50012e-07
-5.50384e-09
6.6848e-09
4.94952e-16
7.97299e-07
5.29757e-09
2.64592e-17
8.30027e-07
2.91406e-09
2.04671e-16
8.51376e-07
6.19367e-16
5.63163e-16
8.62016e-07
-2.91406e-09
8.42228e-16
8.62016e-07
-5.29757e-09
1.08546e-15
8.51376e-07
-6.6848e-09
8.64554e-16
8.30027e-07
-6.7651e-09
-1.82042e-16
7.97299e-07
-1.43899e-16
7.50012e-07
-5.50384e-09
6.7651e-09
-1.67057e-09
7.50012e-07
-5.50384e-09
6.6848e-09
-2.17713e-09
7.97299e-07
5.29757e-09
-2.55748e-09
8.30027e-07
2.91406e-09
-2.7984e-09
8.51376e-07
1.048e-15
-2.91405e-09
8.62016e-07
-2.91405e-09
-2.91405e-09
8.62016e-07
-5.29757e-09
-2.7984e-09
8.51376e-07
-6.6848e-09
-2.55748e-09
8.30027e-07
-6.7651e-09
-2.17713e-09
7.97299e-07
-1.67057e-09
7.50012e-07
-5.50384e-09
6.46904e-09
-3.00889e-09
7.34966e-07
-5.27237e-09
6.40229e-09
-3.93699e-09
7.84328e-07
5.08216e-09
-4.63628e-09
8.18337e-07
2.7984e-09
-5.08216e-09
8.40407e-07
1.01315e-15
-5.29757e-09
8.51376e-07
-2.7984e-09
-5.29757e-09
8.51376e-07
-5.08216e-09
-5.08216e-09
8.40407e-07
-6.40229e-09
-4.63628e-09
8.18337e-07
-6.46904e-09
-3.93699e-09
7.84328e-07
-3.00889e-09
7.34966e-07
-5.27237e-09
5.86793e-09
-3.76398e-09
7.04194e-07
-4.79047e-09
5.82464e-09
-4.93612e-09
7.57867e-07
4.63628e-09
-5.82465e-09
7.94677e-07
2.55748e-09
-6.40229e-09
8.18337e-07
3.47546e-16
-6.6848e-09
8.30027e-07
-2.55748e-09
-6.6848e-09
8.30027e-07
-4.63628e-09
-6.40229e-09
8.18337e-07
-5.82464e-09
-5.82464e-09
7.94677e-07
-5.86793e-09
-4.93612e-09
7.57867e-07
-3.76398e-09
7.04194e-07
-4.79047e-09
4.97327e-09
-3.77882e-09
6.56154e-07
-4.12207e-09
4.93612e-09
-4.97327e-09
7.16363e-07
3.93699e-09
-5.86793e-09
7.57867e-07
2.17713e-09
-6.46904e-09
7.84328e-07
-5.02577e-16
-6.7651e-09
7.97299e-07
-2.17713e-09
-6.7651e-09
7.97299e-07
-3.93699e-09
-6.46904e-09
7.84328e-07
-4.93612e-09
-5.86793e-09
7.57867e-07
-4.97327e-09
-4.97327e-09
7.16363e-07
-3.77882e-09
6.56154e-07
-4.12207e-09
3.77882e-09
5.89022e-07
-3.16974e-09
-3.16974e-09
3.76398e-09
6.56154e-07
-4.12207e-09
3.00889e-09
7.04194e-07
-4.79047e-09
1.67057e-09
7.34966e-07
-5.27237e-09
-4.13944e-16
7.50012e-07
-5.50384e-09
-1.67057e-09
7.50012e-07
-5.50384e-09
-3.00889e-09
7.34966e-07
-5.27237e-09
-3.76398e-09
7.04194e-07
-4.79047e-09
-3.77882e-09
6.56154e-07
-4.12207e-09
5.89022e-07
-3.16974e-09
-3.16974e-09
1.0147e-09
1.0147e-09
5.88485e-07
-7.45916e-10
-7.45916e-10
1.10262e-09
1.49848e-09
6.55668e-07
-1.10033e-09
9.26242e-10
1.88271e-09
7.03847e-07
-1.3592e-09
5.289e-10
2.15613e-09
7.34769e-07
-1.56102e-09
4.20621e-16
2.2932e-09
7.49906e-07
-1.65885e-09
-5.28899e-10
2.29321e-09
7.49906e-07
-1.65885e-09
-9.26241e-10
2.15613e-09
7.34769e-07
-1.56102e-09
-1.10262e-09
1.88271e-09
7.03847e-07
-1.3592e-09
-1.0147e-09
1.49848e-09
6.55668e-07
-1.10033e-09
1.0147e-09
5.88485e-07
-7.45916e-10
-7.45915e-10
1.49848e-09
1.10262e-09
6.55668e-07
-1.10033e-09
1.60352e-09
1.60353e-09
7.16153e-07
1.3367e-09
2.00728e-09
7.5801e-07
7.57302e-10
2.28385e-09
7.84779e-07
8.45495e-16
2.42232e-09
7.97927e-07
-7.573e-10
2.42232e-09
7.97927e-07
-1.3367e-09
2.28385e-09
7.84779e-07
-1.60352e-09
2.00728e-09
7.5801e-07
-1.49848e-09
1.60352e-09
7.16153e-07
1.10262e-09
6.55668e-07
-1.10033e-09
1.88271e-09
9.26243e-10
7.03847e-07
-1.3592e-09
2.00728e-09
1.3367e-09
7.5801e-07
1.66553e-09
1.66553e-09
7.95361e-07
9.39445e-10
1.88616e-09
8.19461e-07
9.39446e-16
1.99568e-09
8.31393e-07
-9.39443e-10
1.99568e-09
8.31393e-07
-1.66553e-09
1.88616e-09
8.19461e-07
-2.00728e-09
1.66553e-09
7.95361e-07
-1.88271e-09
1.3367e-09
7.5801e-07
9.26242e-10
7.03847e-07
-1.3592e-09
2.15613e-09
5.28901e-10
7.34769e-07
-1.56102e-09
2.28386e-09
7.57302e-10
7.84779e-07
1.88616e-09
9.39444e-10
8.19461e-07
1.06078e-09
1.06078e-09
8.42058e-07
7.51312e-16
1.12075e-09
8.53312e-07
-1.06078e-09
1.12075e-09
8.53312e-07
-1.88615e-09
1.06078e-09
8.42058e-07
-2.28385e-09
9.39444e-10
8.19461e-07
-2.15613e-09
7.57301e-10
7.84779e-07
5.289e-10
7.34769e-07
-1.56102e-09
2.29321e-09
6.51061e-16
7.49906e-07
-1.65885e-09
2.42232e-09
1.11352e-15
7.97927e-07
1.99568e-09
8.44078e-16
8.31393e-07
1.12075e-09
8.18876e-16
8.53312e-07
6.08259e-16
9.51494e-16
8.64257e-07
-1.12074e-09
1.03902e-15
8.64257e-07
-1.99568e-09
9.41383e-16
8.53312e-07
-2.42232e-09
7.43803e-16
8.31393e-07
-2.2932e-09
2.08417e-16
7.97927e-07
6.26689e-17
7.49906e-07
-1.65885e-09
2.29321e-09
-5.28899e-10
7.49906e-07
-1.65885e-09
2.42232e-09
-7.573e-10
7.97927e-07
1.99568e-09
-9.39443e-10
8.31393e-07
1.12075e-09
-1.06078e-09
8.53312e-07
7.9744e-16
-1.12074e-09
8.64257e-07
-1.12074e-09
-1.12074e-09
8.64257e-07
-1.99568e-09
-1.06078e-09
8.53312e-07
-2.42232e-09
-9.39442e-10
8.31393e-07
-2.2932e-09
-7.573e-10
7.97927e-07
-5.289e-10
7.49906e-07
-1.65885e-09
2.15613e-09
-9.26242e-10
7.34769e-07
-1.56102e-09
2.28385e-09
-1.3367e-09
7.84779e-07
1.88616e-09
-1.66553e-09
8.19461e-07
1.06078e-09
-1.88615e-09
8.42058e-07
7.32124e-16
-1.99568e-09
8.53312e-07
-1.06078e-09
-1.99568e-09
8.53312e-07
-1.88615e-09
-1.88615e-09
8.42058e-07
-2.28385e-09
-1.66553e-09
8.19461e-07
-2.15613e-09
-1.3367e-09
7.84779e-07
-9.26241e-10
7.34769e-07
-1.56102e-09
1.88271e-09
-1.10262e-09
7.03847e-07
-1.3592e-09
2.00728e-09
-1.60352e-09
7.5801e-07
1.66553e-09
-2.00728e-09
7.95361e-07
9.39444e-10
-2.28385e-09
8.19461e-07
6.9774e-16
-2.42232e-09
8.31393e-07
-9.39443e-10
-2.42232e-09
8.31393e-07
-1.66553e-09
-2.28385e-09
8.19461e-07
-2.00728e-09
-2.00728e-09
7.95361e-07
-1.88271e-09
-1.60352e-09
7.5801e-07
-1.10262e-09
7.03847e-07
-1.3592e-09
1.49848e-09
-1.0147e-09
6.55668e-07
-1.10033e-09
1.60352e-09
-1.49848e-09
7.16153e-07
1.3367e-09
-1.88271e-09
7.5801e-07
7.57301e-10
-2.15613e-09
7.84779e-07
6.04995e-16
-2.2932e-09
7.97927e-07
-7.573e-10
-2.2932e-09
7.97927e-07
-1.3367e-09
-2.15613e-09
7.84779e-07
-1.60352e-09
-1.88271e-09
7.5801e-07
-1.49848e-09
-1.49848e-09
7.16153e-07
-1.0147e-09
6.55668e-07
-1.10033e-09
1.0147e-09
5.88485e-07
-7.45915e-10
-7.45915e-10
1.10262e-09
6.55668e-07
-1.10033e-09
9.26242e-10
7.03847e-07
-1.3592e-09
5.289e-10
7.34769e-07
-1.56102e-09
4.3247e-16
7.49906e-07
-1.65885e-09
-5.28899e-10
7.49906e-07
-1.65885e-09
-9.26241e-10
7.34769e-07
-1.56102e-09
-1.10262e-09
7.03847e-07
-1.3592e-09
-1.0147e-09
6.55668e-07
-1.10033e-09
5.88485e-07
-7.45915e-10
-7.45915e-10
2.37548e-10
2.37548e-10
5.88287e-07
-1.38741e-10
-1.38741e-10
2.88713e-10
4.04205e-10
6.55465e-07
-2.52781e-10
2.56712e-10
5.4232e-10
7.03675e-07
-3.38981e-10
1.51126e-10
6.45419e-10
7.34639e-07
-4.10063e-10
1.39089e-16
6.97605e-10
7.49804e-07
-4.44226e-10
-1.51125e-10
6.97605e-10
7.49804e-07
-4.44226e-10
-2.56712e-10
6.45419e-10
7.34639e-07
-4.10063e-10
-2.88713e-10
5.42321e-10
7.03675e-07
-3.38981e-10
-2.37548e-10
4.04206e-10
6.55465e-07
-2.52781e-10
2.37548e-10
5.88287e-07
-1.38741e-10
-1.3874e-10
4.04205e-10
2.88713e-10
6.55465e-07
-2.52781e-10
4.69477e-10
4.69476e-10
7.16022e-07
4.08911e-10
6.21997e-10
7.5799e-07
2.37127e-10
7.31163e-10
7.84865e-07
5.62827e-17
7.86764e-10
7.98075e-07
-2.37127e-10
7.86764e-10
7.98075e-07
-4.0891e-10
7.31163e-10
7.84865e-07
-4.69477e-10
6.21997e-10
7.5799e-07
-4.04205e-10
4.69478e-10
7.16022e-07
2.88712e-10
6.55465e-07
-2.52781e-10
5.4232e-10
2.56712e-10
7.03675e-07
-3.38981e-10
6.21996e-10
4.0891e-10
7.5799e-07
5.37093e-10
5.37093e-10
7.9553e-07
3.09347e-10
6.26931e-10
8.19793e-07
-5.23121e-17
6.7248e-10
8.31816e-07
-3.09347e-10
6.7248e-10
8.31816e-07
-5.37093e-10
6.26932e-10
8.19793e-07
-6.21997e-10
5.37094e-10
7.9553e-07
-5.4232e-10
4.08911e-10
7.5799e-07
2.56712e-10
7.03675e-07
-3.38981e-10
6.45418e-10
1.51126e-10
7.34639e-07
-4.10063e-10
7.31163e-10
2.37127e-10
7.84865e-07
6.26931e-10
3.09347e-10
8.19793e-07
3.59628e-10
3.59629e-10
8.42592e-07
1.08167e-16
3.85065e-10
8.53959e-07
-3.59628e-10
3.85065e-10
8.53959e-07
-6.26931e-10
3.59629e-10
8.42592e-07
-7.31163e-10
3.09348e-10
8.19793e-07
-6.45418e-10
2.37128e-10
7.84865e-07