/*--------------------------------*- C++ -*----------------------------------*\
| =========                 |                                                 |
| \\      /  F ield         | OpenFOAM: The Open Source CFD Toolbox           |
|  \\    /   O peration     | Version:  2412                                  |
|   \\  /    A nd           | Website:  www.openfoam.com                      |
|    \\/     M anipulation  |                                                 |
\*---------------------------------------------------------------------------*/
FoamFile
{
    version     2.0;
    format      ascii;
    arch        "LSB;label=32;scalar=64";
    class       surfaceScalarField;
    location    "8.7";
    object      phi;
}
// * * * * * * * * * * * * * * * * * * * * * * * * * * * * * * * * * * * * * //

dimensions      [0 3 -1 0 0 0 0];

oriented        oriented;

internalField   nonuniform List<scalar> 
43700
(
1.83664e-07
1.83664e-07
5.49911e-07
-2.2361e-07
-2.2361e-07
1.35771e-07
1.62694e-07
5.9362e-07
-1.99037e-07
8.99008e-08
1.4922e-07
6.24628e-07
-1.88548e-07
4.46099e-08
1.40277e-07
6.44544e-07
-1.79818e-07
-2.5128e-16
1.3599e-07
6.54342e-07
-1.75794e-07
-4.46099e-08
1.3599e-07
6.54342e-07
-1.75794e-07
-8.99008e-08
1.40277e-07
6.44544e-07
-1.79818e-07
-1.35771e-07
1.4922e-07
6.24628e-07
-1.88548e-07
-1.83664e-07
1.62694e-07
5.9362e-07
-1.99037e-07
1.83664e-07
5.49911e-07
-2.2361e-07
-2.2361e-07
1.62694e-07
1.35771e-07
5.9362e-07
-1.99037e-07
1.20964e-07
1.20964e-07
6.29304e-07
7.97244e-08
1.09815e-07
6.54335e-07
3.94967e-08
1.02419e-07
6.70583e-07
-2.35637e-16
9.88153e-08
6.78644e-07
-3.94967e-08
9.88153e-08
6.78644e-07
-7.97244e-08
1.02419e-07
6.70583e-07
-1.20964e-07
1.09815e-07
6.54335e-07
-1.62694e-07
1.20964e-07
6.29304e-07
1.35771e-07
5.9362e-07
-1.99037e-07
1.4922e-07
8.99008e-08
6.24628e-07
-1.88548e-07
1.09815e-07
7.97244e-08
6.54335e-07
7.19857e-08
7.19857e-08
6.75533e-07
3.55849e-08
6.68421e-08
6.8954e-07
-1.58709e-16
6.43192e-08
6.96559e-07
-3.55849e-08
6.43192e-08
6.96559e-07
-7.19857e-08
6.68421e-08
6.8954e-07
-1.09815e-07
7.19857e-08
6.75533e-07
-1.4922e-07
7.97244e-08
6.54335e-07
8.99008e-08
6.24628e-07
-1.88548e-07
1.40277e-07
4.46099e-08
6.44544e-07
-1.79818e-07
1.02419e-07
3.94967e-08
6.70583e-07
6.68421e-08
3.55849e-08
6.8954e-07
3.29708e-08
3.29708e-08
7.02246e-07
-3.66131e-16
3.16825e-08
7.0865e-07
-3.29708e-08
3.16825e-08
7.0865e-07
-6.68421e-08
3.29708e-08
7.02246e-07
-1.02419e-07
3.55849e-08
6.8954e-07
-1.40277e-07
3.94967e-08
6.70583e-07
4.46099e-08
6.44544e-07
-1.79818e-07
1.3599e-07
-5.92811e-16
6.54342e-07
-1.75794e-07
9.88153e-08
-5.43038e-16
6.78644e-07
6.43192e-08
-5.86256e-16
6.96559e-07
3.16825e-08
-5.8376e-16
7.0865e-07
-3.65725e-16
-5.11033e-16
7.14758e-07
-3.16825e-08
-4.86145e-16
7.14758e-07
-6.43192e-08
-3.51729e-16
7.0865e-07
-9.88153e-08
-2.38734e-16
6.96559e-07
-1.3599e-07
-2.36351e-16
6.78644e-07
-5.30772e-16
6.54342e-07
-1.75794e-07
1.3599e-07
-4.46099e-08
6.54342e-07
-1.75794e-07
9.88153e-08
-3.94967e-08
6.78644e-07
6.43192e-08
-3.55849e-08
6.96559e-07
3.16825e-08
-3.29708e-08
7.0865e-07
-3.72828e-16
-3.16825e-08
7.14758e-07
-3.16825e-08
-3.16825e-08
7.14758e-07
-6.43192e-08
-3.29708e-08
7.0865e-07
-9.88153e-08
-3.55849e-08
6.96559e-07
-1.3599e-07
-3.94967e-08
6.78644e-07
-4.46099e-08
6.54342e-07
-1.75794e-07
1.40277e-07
-8.99008e-08
6.44544e-07
-1.79818e-07
1.02419e-07
-7.97244e-08
6.70583e-07
6.68421e-08
-7.19857e-08
6.8954e-07
3.29708e-08
-6.68421e-08
7.02246e-07
-2.07364e-17
-6.43192e-08
7.0865e-07
-3.29708e-08
-6.43192e-08
7.0865e-07
-6.68421e-08
-6.68421e-08
7.02246e-07
-1.02419e-07
-7.19857e-08
6.8954e-07
-1.40277e-07
-7.97244e-08
6.70583e-07
-8.99008e-08
6.44544e-07
-1.79818e-07
1.4922e-07
-1.35771e-07
6.24628e-07
-1.88548e-07
1.09815e-07
-1.20964e-07
6.54335e-07
7.19857e-08
-1.09815e-07
6.75533e-07
3.55849e-08
-1.02419e-07
6.8954e-07
-1.75756e-17
-9.88153e-08
6.96559e-07
-3.55849e-08
-9.88153e-08
6.96559e-07
-7.19857e-08
-1.02419e-07
6.8954e-07
-1.09815e-07
-1.09815e-07
6.75533e-07
-1.4922e-07
-1.20964e-07
6.54335e-07
-1.35771e-07
6.24628e-07
-1.88548e-07
1.62694e-07
-1.83664e-07
5.9362e-07
-1.99037e-07
1.20964e-07
-1.62694e-07
6.29304e-07
7.97244e-08
-1.4922e-07
6.54335e-07
3.94967e-08
-1.40277e-07
6.70583e-07
-1.19778e-16
-1.3599e-07
6.78644e-07
-3.94967e-08
-1.3599e-07
6.78644e-07
-7.97244e-08
-1.40277e-07
6.70583e-07
-1.20964e-07
-1.4922e-07
6.54335e-07
-1.62694e-07
-1.62694e-07
6.29304e-07
-1.83664e-07
5.9362e-07
-1.99037e-07
1.83664e-07
5.49911e-07
-2.2361e-07
-2.2361e-07
1.35771e-07
5.9362e-07
-1.99037e-07
8.99008e-08
6.24628e-07
-1.88548e-07
4.46099e-08
6.44544e-07
-1.79818e-07
-2.73854e-16
6.54342e-07
-1.75794e-07
-4.46099e-08
6.54342e-07
-1.75794e-07
-8.99008e-08
6.44544e-07
-1.79818e-07
-1.35771e-07
6.24628e-07
-1.88548e-07
-1.83664e-07
5.9362e-07
-1.99037e-07
5.49911e-07
-2.2361e-07
-2.2361e-07
1.32016e-07
1.32016e-07
5.86838e-07
-1.50479e-07
-1.50479e-07
1.04109e-07
1.29792e-07
6.43049e-07
-1.51314e-07
7.1209e-08
1.26189e-07
6.8171e-07
-1.50371e-07
3.59718e-08
1.22676e-07
7.05605e-07
-1.48499e-07
-1.05105e-16
1.20803e-07
7.17029e-07
-1.47517e-07
-3.59718e-08
1.20803e-07
7.17029e-07
-1.47517e-07
-7.1209e-08
1.22676e-07
7.05605e-07
-1.48499e-07
-1.04109e-07
1.26189e-07
6.8171e-07
-1.50371e-07
-1.32016e-07
1.29792e-07
6.43049e-07
-1.51314e-07
1.32016e-07
5.86838e-07
-1.50479e-07
-1.50479e-07
1.29792e-07
1.04109e-07
6.43049e-07
-1.51314e-07
1.00163e-07
1.00163e-07
6.88563e-07
6.7423e-08
9.55859e-08
7.17678e-07
3.37446e-08
9.18153e-08
7.35121e-07
-4.85329e-17
8.98327e-08
7.43359e-07
-3.37446e-08
8.98327e-08
7.43359e-07
-6.7423e-08
9.18153e-08
7.35121e-07
-1.00163e-07
9.55859e-08
7.17678e-07
-1.29792e-07
1.00163e-07
6.88563e-07
1.04109e-07
6.43049e-07
-1.51314e-07
1.26189e-07
7.1209e-08
6.8171e-07
-1.50371e-07
9.55859e-08
6.7423e-08
7.17678e-07
6.34938e-08
6.34938e-08
7.39717e-07
3.15551e-08
6.04963e-08
7.52798e-07
-2.30922e-16
5.89488e-08
7.58998e-07
-3.15551e-08
5.89488e-08
7.58998e-07
-6.34938e-08
6.04963e-08
7.52798e-07
-9.55859e-08
6.34938e-08
7.39717e-07
-1.26189e-07
6.7423e-08
7.17678e-07
7.1209e-08
6.8171e-07
-1.50371e-07
1.22676e-07
3.59718e-08
7.05605e-07
-1.48499e-07
9.18153e-08
3.37446e-08
7.35121e-07
6.04963e-08
3.15551e-08
7.52798e-07
2.99399e-08
2.99399e-08
7.63358e-07
-4.08265e-16
2.91146e-08
7.68424e-07
-2.99399e-08
2.91146e-08
7.68424e-07
-6.04963e-08
2.99399e-08
7.63358e-07
-9.18153e-08
3.15551e-08
7.52798e-07
-1.22676e-07
3.37446e-08
7.35121e-07
3.59718e-08
7.05605e-07
-1.48499e-07
1.20803e-07
-7.6196e-16
7.17029e-07
-1.47517e-07
8.98327e-08
-4.39099e-16
7.43359e-07
5.89488e-08
-6.77984e-16
7.58998e-07
2.91146e-08
-8.30243e-16
7.68424e-07
-1.94698e-16
-3.97884e-16
7.72987e-07
-2.91146e-08
-3.75555e-16
7.72987e-07
-5.89488e-08
-5.77854e-16
7.68424e-07
-8.98327e-08
-4.5654e-16
7.58998e-07
-1.20803e-07
-3.66204e-16
7.43359e-07
-4.26457e-16
7.17029e-07
-1.47517e-07
1.20803e-07
-3.59718e-08
7.17029e-07
-1.47517e-07
8.98327e-08
-3.37446e-08
7.43359e-07
5.89488e-08
-3.15551e-08
7.58998e-07
2.91146e-08
-2.99399e-08
7.68424e-07
-1.67244e-16
-2.91146e-08
7.72987e-07
-2.91146e-08
-2.91146e-08
7.72987e-07
-5.89488e-08
-2.99399e-08
7.68424e-07
-8.98327e-08
-3.15551e-08
7.58998e-07
-1.20803e-07
-3.37446e-08
7.43359e-07
-3.59718e-08
7.17029e-07
-1.47517e-07
1.22676e-07
-7.1209e-08
7.05605e-07
-1.48499e-07
9.18153e-08
-6.7423e-08
7.35121e-07
6.04963e-08
-6.34938e-08
7.52798e-07
2.99399e-08
-6.04963e-08
7.63358e-07
-5.46174e-17
-5.89488e-08
7.68424e-07
-2.99399e-08
-5.89488e-08
7.68424e-07
-6.04963e-08
-6.04963e-08
7.63358e-07
-9.18153e-08
-6.34938e-08
7.52798e-07
-1.22676e-07
-6.7423e-08
7.35121e-07
-7.1209e-08
7.05605e-07
-1.48499e-07
1.26189e-07
-1.04109e-07
6.8171e-07
-1.50371e-07
9.55859e-08
-1.00163e-07
7.17678e-07
6.34938e-08
-9.55859e-08
7.39717e-07
3.15551e-08
-9.18153e-08
7.52798e-07
-3.43052e-16
-8.98327e-08
7.58998e-07
-3.15551e-08
-8.98327e-08
7.58998e-07
-6.34938e-08
-9.18153e-08
7.52798e-07
-9.55859e-08
-9.55859e-08
7.39717e-07
-1.26189e-07
-1.00163e-07
7.17678e-07
-1.04109e-07
6.8171e-07
-1.50371e-07
1.29792e-07
-1.32016e-07
6.43049e-07
-1.51314e-07
1.00163e-07
-1.29792e-07
6.88563e-07
6.7423e-08
-1.26189e-07
7.17678e-07
3.37446e-08
-1.22676e-07
7.35121e-07
-3.62495e-16
-1.20803e-07
7.43359e-07
-3.37446e-08
-1.20803e-07
7.43359e-07
-6.7423e-08
-1.22676e-07
7.35121e-07
-1.00163e-07
-1.26189e-07
7.17678e-07
-1.29792e-07
-1.29792e-07
6.88563e-07
-1.32016e-07
6.43049e-07
-1.51314e-07
1.32016e-07
5.86838e-07
-1.50479e-07
-1.50479e-07
1.04109e-07
6.43049e-07
-1.51314e-07
7.1209e-08
6.8171e-07
-1.50371e-07
3.59718e-08
7.05605e-07
-1.48499e-07
3.1202e-17
7.17029e-07
-1.47517e-07
-3.59718e-08
7.17029e-07
-1.47517e-07
-7.1209e-08
7.05605e-07
-1.48499e-07
-1.04109e-07
6.8171e-07
-1.50371e-07
-1.32016e-07
6.43049e-07
-1.51314e-07
5.86838e-07
-1.50479e-07
-1.50479e-07
1.05786e-07
1.05786e-07
5.96843e-07
-1.10788e-07
-1.10788e-07
8.89118e-08
1.12015e-07
6.67144e-07
-1.19237e-07
6.34057e-08
1.1445e-07
7.16289e-07
-1.23523e-07
3.28445e-08
1.14766e-07
7.4682e-07
-1.25419e-07
-3.75826e-16
1.14636e-07
7.61381e-07
-1.26144e-07
-3.28445e-08
1.14636e-07
7.61381e-07
-1.26144e-07
-6.34057e-08
1.14766e-07
7.4682e-07
-1.25419e-07
-8.89118e-08
1.1445e-07
7.16289e-07
-1.23523e-07
-1.05786e-07
1.12015e-07
6.67144e-07
-1.19237e-07
1.05786e-07
5.96843e-07
-1.10788e-07
-1.10788e-07
1.12015e-07
8.89118e-08
6.67144e-07
-1.19237e-07
9.23236e-08
9.23236e-08
7.27947e-07
6.49539e-08
9.28548e-08
7.66642e-07
3.3361e-08
9.21237e-08
7.89356e-07
-2.93338e-16
9.14982e-08
7.99858e-07
-3.3361e-08
9.14982e-08
7.99858e-07
-6.49539e-08
9.21237e-08
7.89356e-07
-9.23236e-08
9.28548e-08
7.66642e-07
-1.12015e-07
9.23236e-08
7.27947e-07
8.89118e-08
6.67144e-07
-1.19237e-07
1.1445e-07
6.34057e-08
7.16289e-07
-1.23523e-07
9.28548e-08
6.49539e-08
7.66642e-07
6.45549e-08
6.45549e-08
7.96317e-07
3.29354e-08
6.35679e-08
8.12973e-07
-5.08504e-16
6.28996e-08
8.20532e-07
-3.29354e-08
6.28996e-08
8.20532e-07
-6.45549e-08
6.35679e-08
8.12973e-07
-9.28548e-08
6.45549e-08
7.96317e-07
-1.1445e-07
6.49539e-08
7.66642e-07
6.34057e-08
7.16289e-07
-1.23523e-07
1.14766e-07
3.28445e-08
7.4682e-07
-1.25419e-07
9.21237e-08
3.3361e-08
7.89356e-07
6.35679e-08
3.29354e-08
8.12973e-07
3.23036e-08
3.23036e-08
8.25887e-07
-4.14077e-16
3.19037e-08
8.31723e-07
-3.23036e-08
3.19037e-08
8.31723e-07
-6.35679e-08
3.23036e-08
8.25887e-07
-9.21237e-08
3.29354e-08
8.12973e-07
-1.14766e-07
3.3361e-08
7.89356e-07
3.28445e-08
7.4682e-07
-1.25419e-07
1.14636e-07
-5.56884e-16
7.61381e-07
-1.26144e-07
9.14982e-08
-1.60932e-16
7.99858e-07
6.28996e-08
-6.82798e-16
8.20532e-07
3.19037e-08
-8.07457e-16
8.31723e-07
-4.03423e-19
-1.29185e-16
8.36794e-07
-3.19037e-08
1.18069e-17
8.36794e-07
-6.28996e-08
-3.64042e-16
8.31723e-07
-9.14982e-08
-1.59362e-16
8.20532e-07
-1.14636e-07
-1.6947e-18
7.99858e-07
-1.46455e-16
7.61381e-07
-1.26144e-07
1.14636e-07
-3.28445e-08
7.61381e-07
-1.26144e-07
9.14982e-08
-3.3361e-08
7.99858e-07
6.28996e-08
-3.29354e-08
8.20532e-07
3.19037e-08
-3.23036e-08
8.31723e-07
7.61302e-17
-3.19037e-08
8.36794e-07
-3.19037e-08
-3.19037e-08
8.36794e-07
-6.28996e-08
-3.23036e-08
8.31723e-07
-9.14982e-08
-3.29354e-08
8.20532e-07
-1.14636e-07
-3.3361e-08
7.99858e-07
-3.28445e-08
7.61381e-07
-1.26144e-07
1.14766e-07
-6.34057e-08
7.4682e-07
-1.25419e-07
9.21237e-08
-6.49539e-08
7.89356e-07
6.35679e-08
-6.45549e-08
8.12973e-07
3.23036e-08
-6.35679e-08
8.25887e-07
3.25242e-16
-6.28996e-08
8.31723e-07
-3.23036e-08
-6.28996e-08
8.31723e-07
-6.35679e-08
-6.35679e-08
8.25887e-07
-9.21237e-08
-6.45549e-08
8.12973e-07
-1.14766e-07
-6.49539e-08
7.89356e-07
-6.34057e-08
7.4682e-07
-1.25419e-07
1.1445e-07
-8.89118e-08
7.16289e-07
-1.23523e-07
9.28548e-08
-9.23236e-08
7.66642e-07
6.45549e-08
-9.28548e-08
7.96317e-07
3.29354e-08
-9.21237e-08
8.12973e-07
1.36335e-16
-9.14982e-08
8.20532e-07
-3.29354e-08
-9.14982e-08
8.20532e-07
-6.45549e-08
-9.21237e-08
8.12973e-07
-9.28548e-08
-9.28548e-08
7.96317e-07
-1.1445e-07
-9.23236e-08
7.66642e-07
-8.89118e-08
7.16289e-07
-1.23523e-07
1.12015e-07
-1.05786e-07
6.67144e-07
-1.19237e-07
9.23236e-08
-1.12015e-07
7.27947e-07
6.49539e-08
-1.1445e-07
7.66642e-07
3.3361e-08
-1.14766e-07
7.89356e-07
-2.52185e-17
-1.14636e-07
7.99858e-07
-3.3361e-08
-1.14636e-07
7.99858e-07
-6.49539e-08
-1.14766e-07
7.89356e-07
-9.23236e-08
-1.1445e-07
7.66642e-07
-1.12015e-07
-1.12015e-07
7.27947e-07
-1.05786e-07
6.67144e-07
-1.19237e-07
1.05786e-07
5.96843e-07
-1.10788e-07
-1.10788e-07
8.89118e-08
6.67144e-07
-1.19237e-07
6.34057e-08
7.16289e-07
-1.23523e-07
3.28445e-08
7.4682e-07
-1.25419e-07
1.16937e-16
7.61381e-07
-1.26144e-07
-3.28445e-08
7.61381e-07
-1.26144e-07
-6.34057e-08
7.4682e-07
-1.25419e-07
-8.89118e-08
7.16289e-07
-1.23523e-07
-1.05786e-07
6.67144e-07
-1.19237e-07
5.96843e-07
-1.10788e-07
-1.10788e-07
5.69832e-08
5.69832e-08
5.95888e-07
-5.65055e-08
-5.65055e-08
5.0259e-08
6.47876e-08
6.73807e-07
-6.47269e-08
3.70428e-08
6.95306e-08
7.29674e-07
-6.96995e-08
1.9589e-08
7.20334e-08
7.64959e-07
-7.27187e-08
1.16485e-16
7.30905e-08
7.81929e-07
-7.40499e-08
-1.9589e-08
7.30905e-08
7.81929e-07
-7.40499e-08
-3.70428e-08
7.20334e-08
7.64959e-07
-7.27187e-08
-5.0259e-08
6.95306e-08
7.29674e-07
-6.96995e-08
-5.69832e-08
6.47876e-08
6.73807e-07
-6.47269e-08
5.69832e-08
5.95888e-07
-5.65055e-08
-5.65055e-08
6.47876e-08
5.0259e-08
6.73807e-07
-6.47269e-08
5.6195e-08
5.6195e-08
7.45132e-07
4.09718e-08
5.96433e-08
7.91753e-07
2.15036e-08
6.13098e-08
8.19548e-07
5.91386e-16
6.19619e-08
8.3249e-07
-2.15036e-08
6.19619e-08
8.3249e-07
-4.09718e-08
6.13098e-08
8.19548e-07
-5.6195e-08
5.96433e-08
7.91753e-07
-6.47876e-08
5.6195e-08
7.45132e-07
5.0259e-08
6.73807e-07
-6.47269e-08
6.95306e-08
3.70428e-08
7.29674e-07
-6.96995e-08
5.96433e-08
4.09718e-08
7.91753e-07
4.3093e-08
4.3093e-08
8.29417e-07
2.24933e-08
4.40439e-08
8.50839e-07
4.17574e-16
4.43865e-08
8.60601e-07
-2.24933e-08
4.43865e-08
8.60601e-07
-4.3093e-08
4.40439e-08
8.50839e-07
-5.96433e-08
4.3093e-08
8.29417e-07
-6.95306e-08
4.09718e-08
7.91753e-07
3.70428e-08
7.29674e-07
-6.96995e-08
7.20334e-08
1.9589e-08
7.64959e-07
-7.27187e-08
6.13098e-08
2.15036e-08
8.19548e-07
4.40439e-08
2.24933e-08
8.50839e-07
2.29188e-08
2.29188e-08
8.68137e-07
4.64877e-16
2.30638e-08
8.75965e-07
-2.29188e-08
2.30638e-08
8.75965e-07
-4.40439e-08
2.29188e-08
8.68137e-07
-6.13098e-08
2.24933e-08
8.50839e-07
-7.20334e-08
2.15036e-08
8.19548e-07
1.9589e-08
7.64959e-07
-7.27187e-08
7.30905e-08
-2.26154e-16
7.81929e-07
-7.40499e-08
6.19619e-08
3.87707e-16
8.3249e-07
4.43865e-08
1.23114e-16
8.60601e-07
2.30638e-08
7.37618e-17
8.75965e-07
5.1366e-16
4.6401e-16
8.82922e-07
-2.30638e-08
3.70749e-16
8.82922e-07
-4.43865e-08
-2.3776e-16
8.75965e-07
-6.19619e-08
-2.13236e-16
8.60601e-07
-7.30905e-08
-3.36346e-16
8.3249e-07
-2.62853e-16
7.81929e-07
-7.40499e-08
7.30905e-08
-1.9589e-08
7.81929e-07
-7.40499e-08
6.19619e-08
-2.15036e-08
8.3249e-07
4.43865e-08
-2.24933e-08
8.60601e-07
2.30638e-08
-2.29188e-08
8.75965e-07
3.49517e-16
-2.30638e-08
8.82922e-07
-2.30638e-08
-2.30638e-08
8.82922e-07
-4.43865e-08
-2.29188e-08
8.75965e-07
-6.19619e-08
-2.24933e-08
8.60601e-07
-7.30905e-08
-2.15036e-08
8.3249e-07
-1.9589e-08
7.81929e-07
-7.40499e-08
7.20334e-08
-3.70428e-08
7.64959e-07
-7.27187e-08
6.13098e-08
-4.09718e-08
8.19548e-07
4.40439e-08
-4.3093e-08
8.50839e-07
2.29188e-08
-4.40439e-08
8.68137e-07
4.56626e-16
-4.43865e-08
8.75965e-07
-2.29188e-08
-4.43865e-08
8.75965e-07
-4.40439e-08
-4.40439e-08
8.68137e-07
-6.13098e-08
-4.3093e-08
8.50839e-07
-7.20334e-08
-4.09718e-08
8.19548e-07
-3.70428e-08
7.64959e-07
-7.27187e-08
6.95306e-08
-5.0259e-08
7.29674e-07
-6.96995e-08
5.96433e-08
-5.6195e-08
7.91753e-07
4.3093e-08
-5.96433e-08
8.29417e-07
2.24933e-08
-6.13098e-08
8.50839e-07
1.22161e-16
-6.19619e-08
8.60601e-07
-2.24933e-08
-6.19619e-08
8.60601e-07
-4.3093e-08
-6.13098e-08
8.50839e-07
-5.96433e-08
-5.96433e-08
8.29417e-07
-6.95306e-08
-5.6195e-08
7.91753e-07
-5.0259e-08
7.29674e-07
-6.96995e-08
6.47876e-08
-5.69832e-08
6.73807e-07
-6.47269e-08
5.6195e-08
-6.47876e-08
7.45132e-07
4.09718e-08
-6.95306e-08
7.91753e-07
2.15036e-08
-7.20334e-08
8.19548e-07
-3.21441e-16
-7.30905e-08
8.3249e-07
-2.15036e-08
-7.30905e-08
8.3249e-07
-4.09718e-08
-7.20334e-08
8.19548e-07
-5.6195e-08
-6.95306e-08
7.91753e-07
-6.47876e-08
-6.47876e-08
7.45132e-07
-5.69832e-08
6.73807e-07
-6.47269e-08
5.69832e-08
5.95888e-07
-5.65055e-08
-5.65055e-08
5.0259e-08
6.73807e-07
-6.47269e-08
3.70428e-08
7.29674e-07
-6.96995e-08
1.9589e-08
7.64959e-07
-7.27187e-08
-1.0855e-16
7.81929e-07
-7.40499e-08
-1.9589e-08
7.81929e-07
-7.40499e-08
-3.70428e-08
7.64959e-07
-7.27187e-08
-5.0259e-08
7.29674e-07
-6.96995e-08
-5.69832e-08
6.73807e-07
-6.47269e-08
5.95888e-07
-5.65055e-08
-5.65055e-08
3.08136e-08
3.08136e-08
5.92886e-07
-2.93127e-08
-2.93127e-08
2.79376e-08
3.62011e-08
6.74753e-07
-3.42704e-08
2.10473e-08
3.99507e-08
7.34396e-07
-3.77817e-08
1.12833e-08
4.22209e-08
7.7254e-07
-4.00373e-08
1.33641e-16
4.32614e-08
7.91023e-07
-4.10719e-08
-1.12833e-08
4.32614e-08
7.91023e-07
-4.10719e-08
-2.10473e-08
4.22209e-08
7.7254e-07
-4.00373e-08
-2.79376e-08
3.99507e-08
7.34396e-07
-3.77817e-08
-3.08136e-08
3.62011e-08
6.74753e-07
-3.42704e-08
3.08136e-08
5.92886e-07
-2.93127e-08
-2.93127e-08
3.62011e-08
2.79376e-08
6.74753e-07
-3.42704e-08
3.26196e-08
3.26196e-08
7.52295e-07
2.44316e-08
3.58025e-08
8.04089e-07
1.30358e-08
3.76572e-08
8.35507e-07
5.65086e-16
3.84932e-08
8.50294e-07
-1.30358e-08
3.84932e-08
8.50294e-07
-2.44316e-08
3.76572e-08
8.35507e-07
-3.26196e-08
3.58025e-08
8.04089e-07
-3.62011e-08
3.26196e-08
7.52295e-07
2.79376e-08
6.74753e-07
-3.42704e-08
3.99507e-08
2.10473e-08
7.34396e-07
-3.77817e-08
3.58025e-08
2.44316e-08
8.04089e-07
2.66759e-08
2.66759e-08
8.47671e-07
1.41817e-08
2.79527e-08
8.73037e-07
3.16901e-16
2.85179e-08
8.84758e-07
-1.41817e-08
2.85179e-08
8.84758e-07
-2.66759e-08
2.79527e-08
8.73037e-07
-3.58025e-08
2.66759e-08
8.47671e-07
-3.99507e-08
2.44316e-08
8.04089e-07
2.10473e-08
7.34396e-07
-3.77817e-08
4.22209e-08
1.12833e-08
7.7254e-07
-4.00373e-08
3.76572e-08
1.30358e-08
8.35507e-07
2.79527e-08
1.41817e-08
8.73037e-07
1.48279e-08
1.48279e-08
8.94387e-07
3.66343e-16
1.51112e-08
9.04199e-07
-1.48279e-08
1.51112e-08
9.04199e-07
-2.79527e-08
1.48279e-08
8.94387e-07
-3.76572e-08
1.41817e-08
8.73037e-07
-4.22209e-08
1.30358e-08
8.35507e-07
1.12833e-08
7.7254e-07
-4.00373e-08
4.32614e-08
4.38379e-16
7.91023e-07
-4.10719e-08
3.84932e-08
7.52217e-16
8.50294e-07
2.85179e-08
3.57279e-16
8.84758e-07
1.51112e-08
1.88152e-16
9.04199e-07
5.36889e-16
5.05344e-16
9.13144e-07
-1.51112e-08
8.79917e-16
9.13144e-07
-2.85179e-08
7.13208e-16
9.04199e-07
-3.84932e-08
5.34264e-16
8.84758e-07
-4.32614e-08
8.32793e-17
8.50294e-07
-8.81996e-18
7.91023e-07
-4.10719e-08
4.32614e-08
-1.12833e-08
7.91023e-07
-4.10719e-08
3.84932e-08
-1.30358e-08
8.50294e-07
2.85179e-08
-1.41817e-08
8.84758e-07
1.51112e-08
-1.48279e-08
9.04199e-07
8.25721e-16
-1.51112e-08
9.13144e-07
-1.51112e-08
-1.51112e-08
9.13144e-07
-2.85179e-08
-1.48279e-08
9.04199e-07
-3.84932e-08
-1.41817e-08
8.84758e-07
-4.32614e-08
-1.30358e-08
8.50294e-07
-1.12833e-08
7.91023e-07
-4.10719e-08
4.22209e-08
-2.10473e-08
7.7254e-07
-4.00373e-08
3.76572e-08
-2.44316e-08
8.35507e-07
2.79527e-08
-2.66759e-08
8.73037e-07
1.48279e-08
-2.79527e-08
8.94387e-07
1.18336e-15
-2.85179e-08
9.04199e-07
-1.48279e-08
-2.85179e-08
9.04199e-07
-2.79527e-08
-2.79527e-08
8.94387e-07
-3.76572e-08
-2.66759e-08
8.73037e-07
-4.22209e-08
-2.44316e-08
8.35507e-07
-2.10473e-08
7.7254e-07
-4.00373e-08
3.99507e-08
-2.79376e-08
7.34396e-07
-3.77817e-08
3.58025e-08
-3.26196e-08
8.04089e-07
2.66759e-08
-3.58025e-08
8.47671e-07
1.41817e-08
-3.76572e-08
8.73037e-07
8.04359e-16
-3.84932e-08
8.84758e-07
-1.41817e-08
-3.84932e-08
8.84758e-07
-2.66759e-08
-3.76572e-08
8.73037e-07
-3.58025e-08
-3.58025e-08
8.47671e-07
-3.99507e-08
-3.26196e-08
8.04089e-07
-2.79376e-08
7.34396e-07
-3.77817e-08
3.62011e-08
-3.08136e-08
6.74753e-07
-3.42704e-08
3.26196e-08
-3.62011e-08
7.52295e-07
2.44316e-08
-3.99507e-08
8.04089e-07
1.30358e-08
-4.22209e-08
8.35507e-07
1.2576e-16
-4.32614e-08
8.50294e-07
-1.30358e-08
-4.32614e-08
8.50294e-07
-2.44316e-08
-4.22209e-08
8.35507e-07
-3.26196e-08
-3.99507e-08
8.04089e-07
-3.62011e-08
-3.62011e-08
7.52295e-07
-3.08136e-08
6.74753e-07
-3.42704e-08
3.08136e-08
5.92886e-07
-2.93127e-08
-2.93127e-08
2.79376e-08
6.74753e-07
-3.42704e-08
2.10473e-08
7.34396e-07
-3.77817e-08
1.12833e-08
7.7254e-07
-4.00373e-08
1.77644e-16
7.91023e-07
-4.10719e-08
-1.12833e-08
7.91023e-07
-4.10719e-08
-2.10473e-08
7.7254e-07
-4.00373e-08
-2.79376e-08
7.34396e-07
-3.77817e-08
-3.08136e-08
6.74753e-07
-3.42704e-08
5.92886e-07
-2.93127e-08
-2.93127e-08
1.36591e-08
1.36591e-08
5.90105e-07
-1.22686e-08
-1.22686e-08
1.296e-08
1.70141e-08
6.73431e-07
-1.49932e-08
1.00919e-08
1.96121e-08
7.34774e-07
-1.71229e-08
5.51985e-09
2.13386e-08
7.74361e-07
-1.85877e-08
7.60249e-17
2.21764e-08
7.93657e-07
-1.92904e-08
-5.51985e-09
2.21764e-08
7.93657e-07
-1.92904e-08
-1.00919e-08
2.13386e-08
7.74361e-07
-1.85877e-08
-1.296e-08
1.96121e-08
7.34774e-07
-1.71229e-08
-1.36591e-08
1.70141e-08
6.73431e-07
-1.49932e-08
1.36591e-08
5.90105e-07
-1.22686e-08
-1.22686e-08
1.70141e-08
1.296e-08
6.73431e-07
-1.49932e-08
1.6184e-08
1.6184e-08
7.53955e-07
1.25875e-08
1.86499e-08
8.08648e-07
6.86857e-09
2.02476e-08
8.42317e-07
6.74974e-16
2.10182e-08
8.58321e-07
-6.86856e-09
2.10182e-08
8.58321e-07
-1.25875e-08
2.02476e-08
8.42317e-07
-1.6184e-08
1.86499e-08
8.08648e-07
-1.70141e-08
1.6184e-08
7.53955e-07
1.296e-08
6.73431e-07
-1.49932e-08
1.96121e-08
1.00919e-08
7.34774e-07
-1.71229e-08
1.86499e-08
1.25875e-08
8.08648e-07
1.44699e-08
1.44699e-08
8.56031e-07
7.87576e-09
1.56683e-08
8.84211e-07
6.46767e-16
1.624e-08
8.97412e-07
-7.87576e-09
1.624e-08
8.97412e-07
-1.44699e-08
1.56683e-08
8.84211e-07
-1.86499e-08
1.44699e-08
8.56031e-07
-1.96121e-08
1.25875e-08
8.08648e-07
1.00919e-08
7.34774e-07
-1.71229e-08
2.13386e-08
5.51985e-09
7.74361e-07
-1.85877e-08
2.02476e-08
6.86857e-09
8.42317e-07
1.56683e-08
7.87576e-09
8.84211e-07
8.51165e-09
8.51165e-09
9.087e-07
6.86565e-16
8.81278e-09
9.20138e-07
-8.51165e-09
8.81278e-09
9.20138e-07
-1.56683e-08
8.51165e-09
9.087e-07
-2.02476e-08
7.87576e-09
8.84211e-07
-2.13386e-08
6.86856e-09
8.42317e-07
5.51985e-09
7.74361e-07
-1.85877e-08
2.21764e-08
1.68868e-16
7.93657e-07
-1.92904e-08
2.10182e-08
4.3003e-16
8.58321e-07
1.624e-08
4.60106e-16
8.97412e-07
8.81278e-09
5.37763e-16
9.20138e-07
6.74894e-16
6.89472e-16
9.3077e-07
-8.81278e-09
7.12522e-16
9.3077e-07
-1.624e-08
5.2867e-16
9.20138e-07
-2.10182e-08
2.73859e-16
8.97412e-07
-2.21764e-08
3.70861e-17
8.58321e-07
7.201e-17
7.93657e-07
-1.92904e-08
2.21764e-08
-5.51985e-09
7.93657e-07
-1.92904e-08
2.10182e-08
-6.86856e-09
8.58321e-07
1.624e-08
-7.87576e-09
8.97412e-07
8.81278e-09
-8.51165e-09
9.20138e-07
6.58267e-16
-8.81278e-09
9.3077e-07
-8.81278e-09
-8.81278e-09
9.3077e-07
-1.624e-08
-8.51165e-09
9.20138e-07
-2.10182e-08
-7.87576e-09
8.97412e-07
-2.21764e-08
-6.86856e-09
8.58321e-07
-5.51985e-09
7.93657e-07
-1.92904e-08
2.13386e-08
-1.00919e-08
7.74361e-07
-1.85877e-08
2.02476e-08
-1.25875e-08
8.42317e-07
1.56683e-08
-1.44699e-08
8.84211e-07
8.51165e-09
-1.56683e-08
9.087e-07
8.25895e-16
-1.624e-08
9.20138e-07
-8.51165e-09
-1.624e-08
9.20138e-07
-1.56683e-08
-1.56683e-08
9.087e-07
-2.02476e-08
-1.44699e-08
8.84211e-07
-2.13386e-08
-1.25875e-08
8.42317e-07
-1.00919e-08
7.74361e-07
-1.85877e-08
1.96121e-08
-1.296e-08
7.34774e-07
-1.71229e-08
1.86499e-08
-1.6184e-08
8.08648e-07
1.44699e-08
-1.86499e-08
8.56031e-07
7.87576e-09
-2.02476e-08
8.84211e-07
5.84755e-16
-2.10182e-08
8.97412e-07
-7.87576e-09
-2.10182e-08
8.97412e-07
-1.44699e-08
-2.02476e-08
8.84211e-07
-1.86499e-08
-1.86499e-08
8.56031e-07
-1.96121e-08
-1.6184e-08
8.08648e-07
-1.296e-08
7.34774e-07
-1.71229e-08
1.70141e-08
-1.36591e-08
6.73431e-07
-1.49932e-08
1.6184e-08
-1.70141e-08
7.53955e-07
1.25875e-08
-1.96121e-08
8.08648e-07
6.86856e-09
-2.13386e-08
8.42317e-07
5.72271e-17
-2.21764e-08
8.58321e-07
-6.86856e-09
-2.21764e-08
8.58321e-07
-1.25875e-08
-2.13386e-08
8.42317e-07
-1.6184e-08
-1.96121e-08
8.08648e-07
-1.70141e-08
-1.70141e-08
7.53955e-07
-1.36591e-08
6.73431e-07
-1.49932e-08
1.36591e-08
5.90105e-07
-1.22686e-08
-1.22686e-08
1.296e-08
6.73431e-07
-1.49932e-08
1.00919e-08
7.34774e-07
-1.71229e-08
5.51985e-09
7.74361e-07
-1.85877e-08
3.33128e-17
7.93657e-07
-1.92904e-08
-5.51985e-09
7.93657e-07
-1.92904e-08
-1.00919e-08
7.74361e-07
-1.85877e-08
-1.296e-08
7.34774e-07
-1.71229e-08
-1.36591e-08
6.73431e-07
-1.49932e-08
5.90105e-07
-1.22686e-08
-1.22686e-08
5.16207e-09
5.16207e-09
5.88478e-07
-4.34863e-09
-4.34863e-09
5.14659e-09
6.85346e-09
6.72158e-07
-5.56479e-09
4.1522e-09
8.28938e-09
7.34086e-07
-6.6066e-09
2.31986e-09
9.31343e-09
7.74248e-07
-7.36829e-09
2.05335e-16
9.83086e-09
7.93893e-07
-7.74695e-09
-2.31986e-09
9.83086e-09
7.93893e-07
-7.74695e-09
-4.1522e-09
9.31343e-09
7.74248e-07
-7.36829e-09
-5.14659e-09
8.28938e-09
7.34086e-07
-6.6066e-09
-5.16207e-09
6.85346e-09
6.72158e-07
-5.56479e-09
5.16207e-09
5.88478e-07
-4.34863e-09
-4.34863e-09
6.85346e-09
5.14659e-09
6.72158e-07
-5.56479e-09
6.92457e-09
6.92457e-09
7.53813e-07
5.6119e-09
8.4174e-09
8.09833e-07
3.13636e-09
9.45777e-09
8.44648e-07
3.32482e-16
9.98093e-09
8.61307e-07
-3.13636e-09
9.98093e-09
8.61307e-07
-5.6119e-09
9.45777e-09
8.44648e-07
-6.92457e-09
8.4174e-09
8.09833e-07
-6.85346e-09
6.92457e-09
7.53813e-07
5.14659e-09
6.72158e-07
-5.56479e-09
8.28938e-09
4.1522e-09
7.34086e-07
-6.6066e-09
8.4174e-09
5.6119e-09
8.09833e-07
6.82051e-09
6.82051e-09
8.59224e-07
3.80476e-09
7.64755e-09
8.89037e-07
2.82933e-16
8.05892e-09
9.03138e-07
-3.80476e-09
8.05892e-09
9.03138e-07
-6.82051e-09
7.64755e-09
8.89037e-07
-8.4174e-09
6.82051e-09
8.59224e-07
-8.28938e-09
5.6119e-09
8.09833e-07
4.1522e-09
7.34086e-07
-6.6066e-09
9.31343e-09
2.31986e-09
7.74248e-07
-7.36829e-09
9.45777e-09
3.13636e-09
8.44648e-07
7.64755e-09
3.80476e-09
8.89037e-07
4.25733e-09
4.25733e-09
9.15481e-07
4.90399e-16
4.4807e-09
9.27974e-07
-4.25733e-09
4.4807e-09
9.27974e-07
-7.64755e-09
4.25733e-09
9.15481e-07
-9.45777e-09
3.80476e-09
8.89037e-07
-9.31343e-09
3.13636e-09
8.44648e-07
2.31986e-09
7.74248e-07
-7.36829e-09
9.83086e-09
1.65596e-16
7.93893e-07
-7.74695e-09
9.98093e-09
2.27914e-16
8.61307e-07
8.05892e-09
2.4086e-16
9.03138e-07
4.4807e-09
4.57775e-16
9.27974e-07
5.3941e-16
6.91007e-16
9.39731e-07
-4.4807e-09
8.1327e-16
9.39731e-07
-8.05892e-09
8.9333e-16
9.27974e-07
-9.98093e-09
5.28541e-16
9.03138e-07
-9.83086e-09
2.97638e-16
8.61307e-07
1.77982e-16
7.93893e-07
-7.74695e-09
9.83086e-09
-2.31986e-09
7.93893e-07
-7.74695e-09
9.98093e-09
-3.13636e-09
8.61307e-07
8.05892e-09
-3.80476e-09
9.03138e-07
4.4807e-09
-4.25733e-09
9.27974e-07
6.51311e-16
-4.4807e-09
9.39731e-07
-4.4807e-09
-4.4807e-09
9.39731e-07
-8.05892e-09
-4.25733e-09
9.27974e-07
-9.98093e-09
-3.80476e-09
9.03138e-07
-9.83086e-09
-3.13636e-09
8.61307e-07
-2.31986e-09
7.93893e-07
-7.74695e-09
9.31343e-09
-4.1522e-09
7.74248e-07
-7.36829e-09
9.45777e-09
-5.6119e-09
8.44648e-07
7.64755e-09
-6.82051e-09
8.89037e-07
4.25733e-09
-7.64755e-09
9.15481e-07
8.63136e-16
-8.05892e-09
9.27974e-07
-4.25733e-09
-8.05892e-09
9.27974e-07
-7.64755e-09
-7.64755e-09
9.15481e-07
-9.45777e-09
-6.82051e-09
8.89037e-07
-9.31343e-09
-5.6119e-09
8.44648e-07
-4.1522e-09
7.74248e-07
-7.36829e-09
8.28938e-09
-5.14659e-09
7.34086e-07
-6.6066e-09
8.4174e-09
-6.92457e-09
8.09833e-07
6.82051e-09
-8.4174e-09
8.59224e-07
3.80476e-09
-9.45777e-09
8.89037e-07
6.7282e-16
-9.98093e-09
9.03138e-07
-3.80476e-09
-9.98093e-09
9.03138e-07
-6.82051e-09
-9.45777e-09
8.89037e-07
-8.4174e-09
-8.4174e-09
8.59224e-07
-8.28938e-09
-6.92457e-09
8.09833e-07
-5.14659e-09
7.34086e-07
-6.6066e-09
6.85346e-09
-5.16207e-09
6.72158e-07
-5.56479e-09
6.92457e-09
-6.85347e-09
7.53813e-07
5.6119e-09
-8.28938e-09
8.09833e-07
3.13636e-09
-9.31343e-09
8.44648e-07
1.80401e-16
-9.83086e-09
8.61307e-07
-3.13636e-09
-9.83086e-09
8.61307e-07
-5.6119e-09
-9.31343e-09
8.44648e-07
-6.92457e-09
-8.28938e-09
8.09833e-07
-6.85346e-09
-6.85347e-09
7.53813e-07
-5.16207e-09
6.72158e-07
-5.56479e-09
5.16207e-09
5.88478e-07
-4.34863e-09
-4.34863e-09
5.14659e-09
6.72158e-07
-5.56479e-09
4.1522e-09
7.34086e-07
-6.6066e-09
2.31986e-09
7.74248e-07
-7.36829e-09
-1.31682e-16
7.93893e-07
-7.74695e-09
-2.31986e-09
7.93893e-07
-7.74695e-09
-4.1522e-09
7.74248e-07
-7.36829e-09
-5.14659e-09
7.34086e-07
-6.6066e-09
-5.16207e-09
6.72158e-07
-5.56479e-09
5.88478e-07
-4.34863e-09
-4.34863e-09
1.68828e-09
1.68828e-09
5.87683e-07
-1.29078e-09
-1.29078e-09
1.79851e-09
2.43279e-09
6.71385e-07
-1.76998e-09
1.51692e-09
3.1125e-09
7.33471e-07
-2.2157e-09
8.692e-10
3.62315e-09
7.73829e-07
-2.55661e-09
-3.4751e-17
3.88884e-09
7.93605e-07
-2.73137e-09
-8.692e-10
3.88884e-09
7.93605e-07
-2.73137e-09
-1.51691e-09
3.62315e-09
7.73829e-07
-2.55661e-09
-1.79851e-09
3.1125e-09
7.33471e-07
-2.2157e-09
-1.68828e-09
2.43279e-09
6.71385e-07
-1.76998e-09
1.68828e-09
5.87683e-07
-1.29078e-09
-1.29078e-09
2.43279e-09
1.79851e-09
6.71385e-07
-1.76998e-09
2.64242e-09
2.64242e-09
7.53394e-07
2.24222e-09
3.40162e-09
8.09944e-07
1.28561e-09
3.95853e-09
8.4527e-07
2.10225e-16
4.24657e-09
8.62235e-07
-1.28561e-09
4.24657e-09
8.62235e-07
-2.24222e-09
3.95853e-09
8.4527e-07
-2.64242e-09
3.40161e-09
8.09944e-07
-2.43279e-09
2.64242e-09
7.53394e-07
1.79851e-09
6.71385e-07
-1.76998e-09
3.1125e-09
1.51692e-09
7.33471e-07
-2.2157e-09
3.40162e-09
2.24222e-09
8.09944e-07
2.8847e-09
2.8847e-09
8.60258e-07
1.64961e-09
3.34665e-09
8.90884e-07
2.97915e-16
3.58272e-09
9.05452e-07
-1.64961e-09
3.58273e-09
9.05452e-07
-2.8847e-09
3.34665e-09
8.90884e-07
-3.40161e-09
2.8847e-09
8.60258e-07
-3.1125e-09
2.24222e-09
8.09944e-07
1.51692e-09
7.33471e-07
-2.2157e-09
3.62315e-09
8.69201e-10
7.73829e-07
-2.55661e-09
3.95853e-09
1.28561e-09
8.4527e-07
3.34665e-09
1.64961e-09
8.90884e-07
1.90817e-09
1.90817e-09
9.18358e-07
4.61923e-16
2.03917e-09
9.31425e-07
-1.90817e-09
2.03917e-09
9.31425e-07
-3.34665e-09
1.90817e-09
9.18358e-07
-3.95853e-09
1.64961e-09