/*--------------------------------*- C++ -*----------------------------------*\
| =========                 |                                                 |
| \\      /  F ield         | OpenFOAM: The Open Source CFD Toolbox           |
|  \\    /   O peration     | Version:  2412                                  |
|   \\  /    A nd           | Website:  www.openfoam.com                      |
|    \\/     M anipulation  |                                                 |
\*---------------------------------------------------------------------------*/
FoamFile
{
    version     2.0;
    format      ascii;
    arch        "LSB;label=32;scalar=64";
    class       volVectorField;
    location    "2.3";
    object      U;
}
// * * * * * * * * * * * * * * * * * * * * * * * * * * * * * * * * * * * * * //

dimensions      [0 1 -1 0 0 0 0];

internalField   nonuniform List<vector> 
15000
(
(0.000999801 0.000999801 0.0106357)
(0.000729247 0.000919921 0.0105832)
(0.000494199 0.000899033 0.0105339)
(0.000289893 0.000876828 0.0104982)
(9.49981e-05 0.000867156 0.0104803)
(-9.49981e-05 0.000867156 0.0104803)
(-0.000289893 0.000876828 0.0104982)
(-0.000494199 0.000899033 0.0105339)
(-0.000729248 0.000919921 0.0105832)
(-0.000999801 0.000999801 0.0106357)
(0.000919921 0.000729247 0.0105832)
(0.000682888 0.000682888 0.0105083)
(0.000468294 0.000654673 0.0104475)
(0.000273693 0.000635147 0.0104072)
(8.983e-05 0.000626032 0.0103874)
(-8.983e-05 0.000626032 0.0103874)
(-0.000273693 0.000635147 0.0104072)
(-0.000468294 0.000654673 0.0104475)
(-0.000682888 0.000682888 0.0105083)
(-0.000919921 0.000729248 0.0105832)
(0.000899033 0.000494199 0.0105339)
(0.000654673 0.000468294 0.0104475)
(0.000446472 0.000446472 0.0103833)
(0.000259622 0.000430776 0.0103422)
(8.50884e-05 0.000423022 0.0103223)
(-8.50884e-05 0.000423022 0.0103223)
(-0.000259622 0.000430776 0.0103422)
(-0.000446472 0.000446472 0.0103833)
(-0.000654673 0.000468294 0.0104475)
(-0.000899033 0.000494199 0.0105339)
(0.000876828 0.000289893 0.0104982)
(0.000635147 0.000273693 0.0104072)
(0.000430776 0.000259622 0.0103422)
(0.000249469 0.000249469 0.0103014)
(8.16374e-05 0.000244389 0.0102819)
(-8.16374e-05 0.000244389 0.0102819)
(-0.000249469 0.000249469 0.0103014)
(-0.000430776 0.000259622 0.0103422)
(-0.000635147 0.000273693 0.0104072)
(-0.000876828 0.000289893 0.0104982)
(0.000867156 9.49981e-05 0.0104803)
(0.000626032 8.983e-05 0.0103874)
(0.000423022 8.50884e-05 0.0103223)
(0.000244389 8.16374e-05 0.0102819)
(7.99012e-05 7.99012e-05 0.0102626)
(-7.99012e-05 7.99012e-05 0.0102626)
(-0.000244389 8.16374e-05 0.0102819)
(-0.000423022 8.50884e-05 0.0103223)
(-0.000626032 8.983e-05 0.0103874)
(-0.000867156 9.49981e-05 0.0104803)
(0.000867156 -9.49981e-05 0.0104803)
(0.000626032 -8.983e-05 0.0103874)
(0.000423022 -8.50884e-05 0.0103223)
(0.000244389 -8.16373e-05 0.0102819)
(7.99012e-05 -7.99012e-05 0.0102626)
(-7.99012e-05 -7.99012e-05 0.0102626)
(-0.000244389 -8.16374e-05 0.0102819)
(-0.000423022 -8.50883e-05 0.0103223)
(-0.000626032 -8.983e-05 0.0103874)
(-0.000867156 -9.49981e-05 0.0104803)
(0.000876828 -0.000289893 0.0104982)
(0.000635147 -0.000273693 0.0104072)
(0.000430776 -0.000259622 0.0103422)
(0.000249469 -0.000249469 0.0103014)
(8.16374e-05 -0.000244389 0.0102819)
(-8.16374e-05 -0.000244389 0.0102819)
(-0.000249469 -0.000249469 0.0103014)
(-0.000430776 -0.000259622 0.0103422)
(-0.000635147 -0.000273693 0.0104072)
(-0.000876828 -0.000289893 0.0104982)
(0.000899033 -0.000494199 0.0105339)
(0.000654673 -0.000468294 0.0104475)
(0.000446472 -0.000446472 0.0103833)
(0.000259622 -0.000430776 0.0103422)
(8.50884e-05 -0.000423022 0.0103223)
(-8.50883e-05 -0.000423022 0.0103223)
(-0.000259622 -0.000430776 0.0103422)
(-0.000446472 -0.000446472 0.0103833)
(-0.000654673 -0.000468294 0.0104475)
(-0.000899033 -0.000494199 0.0105339)
(0.000919921 -0.000729247 0.0105832)
(0.000682888 -0.000682888 0.0105083)
(0.000468294 -0.000654673 0.0104475)
(0.000273693 -0.000635147 0.0104072)
(8.983e-05 -0.000626032 0.0103874)
(-8.983e-05 -0.000626032 0.0103874)
(-0.000273693 -0.000635147 0.0104072)
(-0.000468294 -0.000654673 0.0104475)
(-0.000682888 -0.000682888 0.0105083)
(-0.000919921 -0.000729248 0.0105832)
(0.000999801 -0.000999801 0.0106357)
(0.000729247 -0.000919921 0.0105832)
(0.000494199 -0.000899033 0.0105339)
(0.000289893 -0.000876828 0.0104982)
(9.49981e-05 -0.000867156 0.0104803)
(-9.49981e-05 -0.000867156 0.0104803)
(-0.000289893 -0.000876828 0.0104982)
(-0.000494199 -0.000899033 0.0105339)
(-0.000729248 -0.000919921 0.0105832)
(-0.000999801 -0.000999801 0.0106357)
(0.000390945 0.000390945 0.0120296)
(0.000313882 0.00041399 0.0119062)
(0.000226809 0.000438054 0.0117968)
(0.00013833 0.000451592 0.0117192)
(4.61092e-05 0.000459408 0.0116803)
(-4.61092e-05 0.000459408 0.0116803)
(-0.00013833 0.000451592 0.0117192)
(-0.000226809 0.000438054 0.0117968)
(-0.000313882 0.000413991 0.0119062)
(-0.000390945 0.000390945 0.0120296)
(0.00041399 0.000313882 0.0119062)
(0.000335768 0.000335768 0.0117371)
(0.000246097 0.00035385 0.0116031)
(0.000150441 0.000365206 0.011514)
(5.04813e-05 0.000371356 0.0114701)
(-5.04813e-05 0.000371356 0.0114701)
(-0.000150441 0.000365206 0.011514)
(-0.000246097 0.00035385 0.0116031)
(-0.000335768 0.000335768 0.0117371)
(-0.00041399 0.000313882 0.0119062)
(0.000438054 0.000226809 0.0117968)
(0.00035385 0.000246097 0.0116031)
(0.000260145 0.000260145 0.0114591)
(0.000159079 0.000268869 0.0113659)
(5.34835e-05 0.00027334 0.0113205)
(-5.34835e-05 0.00027334 0.0113205)
(-0.000159079 0.000268869 0.0113659)
(-0.000260145 0.000260145 0.0114591)
(-0.00035385 0.000246097 0.0116031)
(-0.000438054 0.000226809 0.0117968)
(0.000451592 0.00013833 0.0117192)
(0.000365206 0.000150441 0.011514)
(0.000268869 0.000159079 0.0113659)
(0.000164504 0.000164504 0.0112714)
(5.53548e-05 0.000167238 0.0112256)
(-5.53547e-05 0.000167238 0.0112256)
(-0.000164504 0.000164504 0.0112714)
(-0.000268869 0.00015908 0.0113659)
(-0.000365206 0.000150441 0.011514)
(-0.000451592 0.00013833 0.0117192)
(0.000459408 4.61092e-05 0.0116803)
(0.000371356 5.04813e-05 0.0114701)
(0.00027334 5.34835e-05 0.0113205)
(0.000167238 5.53548e-05 0.0112256)
(5.62852e-05 5.62852e-05 0.0111797)
(-5.62852e-05 5.62852e-05 0.0111797)
(-0.000167238 5.53548e-05 0.0112256)
(-0.00027334 5.34835e-05 0.0113205)
(-0.000371356 5.04814e-05 0.0114701)
(-0.000459408 4.61093e-05 0.0116803)
(0.000459408 -4.61092e-05 0.0116803)
(0.000371356 -5.04813e-05 0.0114701)
(0.00027334 -5.34835e-05 0.0113205)
(0.000167238 -5.53547e-05 0.0112256)
(5.62852e-05 -5.62852e-05 0.0111797)
(-5.62852e-05 -5.62852e-05 0.0111797)
(-0.000167238 -5.53548e-05 0.0112256)
(-0.00027334 -5.34835e-05 0.0113205)
(-0.000371356 -5.04813e-05 0.0114701)
(-0.000459408 -4.61092e-05 0.0116803)
(0.000451592 -0.00013833 0.0117192)
(0.000365206 -0.000150441 0.011514)
(0.000268869 -0.000159079 0.0113659)
(0.000164504 -0.000164504 0.0112714)
(5.53548e-05 -0.000167238 0.0112256)
(-5.53548e-05 -0.000167238 0.0112256)
(-0.000164504 -0.000164504 0.0112714)
(-0.000268869 -0.000159079 0.0113659)
(-0.000365206 -0.000150441 0.011514)
(-0.000451592 -0.00013833 0.0117192)
(0.000438054 -0.000226809 0.0117968)
(0.00035385 -0.000246097 0.0116031)
(0.000260145 -0.000260145 0.0114591)
(0.00015908 -0.000268869 0.0113659)
(5.34835e-05 -0.00027334 0.0113205)
(-5.34835e-05 -0.00027334 0.0113205)
(-0.000159079 -0.000268869 0.0113659)
(-0.000260145 -0.000260145 0.0114591)
(-0.00035385 -0.000246097 0.0116031)
(-0.000438054 -0.000226809 0.0117968)
(0.00041399 -0.000313882 0.0119062)
(0.000335768 -0.000335768 0.0117371)
(0.000246097 -0.00035385 0.0116031)
(0.000150441 -0.000365206 0.011514)
(5.04814e-05 -0.000371356 0.0114701)
(-5.04813e-05 -0.000371356 0.0114701)
(-0.000150441 -0.000365206 0.011514)
(-0.000246097 -0.00035385 0.0116031)
(-0.000335768 -0.000335768 0.0117371)
(-0.000413991 -0.000313882 0.0119062)
(0.000390945 -0.000390945 0.0120296)
(0.000313882 -0.00041399 0.0119062)
(0.000226809 -0.000438054 0.0117968)
(0.00013833 -0.000451592 0.0117192)
(4.61092e-05 -0.000459408 0.0116803)
(-4.61092e-05 -0.000459408 0.0116803)
(-0.00013833 -0.000451592 0.0117192)
(-0.000226809 -0.000438054 0.0117968)
(-0.000313882 -0.00041399 0.0119062)
(-0.000390945 -0.000390945 0.0120296)
(0.000206197 0.000206197 0.0118881)
(0.000172778 0.000226668 0.0118802)
(0.00013035 0.000244941 0.0118508)
(8.12574e-05 0.000256091 0.0118246)
(2.73973e-05 0.00026205 0.0118107)
(-2.73973e-05 0.00026205 0.0118107)
(-8.12573e-05 0.00025609 0.0118246)
(-0.00013035 0.000244941 0.0118508)
(-0.000172778 0.000226668 0.0118802)
(-0.000206197 0.000206197 0.0118881)
(0.000226668 0.000172778 0.0118802)
(0.000193658 0.000193658 0.0118288)
(0.000147136 0.000208901 0.0117774)
(9.17317e-05 0.000218338 0.0117406)
(3.10611e-05 0.000223152 0.0117221)
(-3.10611e-05 0.000223152 0.0117221)
(-9.17317e-05 0.000218338 0.0117406)
(-0.000147136 0.000208901 0.0117774)
(-0.000193658 0.000193658 0.0118288)
(-0.000226668 0.000172778 0.0118802)
(0.000244941 0.00013035 0.0118508)
(0.000208901 0.000147136 0.0117774)
(0.000158609 0.000158609 0.0117157)
(9.86795e-05 0.000165498 0.0116737)
(3.34224e-05 0.000168865 0.0116527)
(-3.34223e-05 0.000168865 0.0116527)
(-9.86795e-05 0.000165498 0.0116737)
(-0.000158609 0.000158609 0.0117157)
(-0.000208901 0.000147136 0.0117774)
(-0.000244941 0.00013035 0.0118508)
(0.000256091 8.12574e-05 0.0118246)
(0.000218338 9.17317e-05 0.0117406)
(0.000165498 9.86795e-05 0.0116737)
(0.000102795 0.000102795 0.0116288)
(3.48063e-05 0.000104775 0.0116063)
(-3.48063e-05 0.000104775 0.0116063)
(-0.000102795 0.000102795 0.0116288)
(-0.000165498 9.86796e-05 0.0116737)
(-0.000218338 9.17317e-05 0.0117406)
(-0.00025609 8.12574e-05 0.0118246)
(0.00026205 2.73973e-05 0.0118107)
(0.000223152 3.10611e-05 0.0117221)
(0.000168865 3.34224e-05 0.0116527)
(0.000104775 3.48063e-05 0.0116063)
(3.54668e-05 3.54668e-05 0.0115832)
(-3.54668e-05 3.54668e-05 0.0115832)
(-0.000104775 3.48063e-05 0.0116063)
(-0.000168865 3.34224e-05 0.0116527)
(-0.000223152 3.10612e-05 0.0117221)
(-0.00026205 2.73974e-05 0.0118107)
(0.00026205 -2.73974e-05 0.0118107)
(0.000223152 -3.10611e-05 0.0117221)
(0.000168865 -3.34223e-05 0.0116527)
(0.000104775 -3.48063e-05 0.0116063)
(3.54668e-05 -3.54667e-05 0.0115832)
(-3.54668e-05 -3.54668e-05 0.0115832)
(-0.000104775 -3.48063e-05 0.0116063)
(-0.000168865 -3.34223e-05 0.0116527)
(-0.000223152 -3.10611e-05 0.0117221)
(-0.00026205 -2.73973e-05 0.0118107)
(0.000256091 -8.12574e-05 0.0118246)
(0.000218338 -9.17317e-05 0.0117406)
(0.000165498 -9.86795e-05 0.0116737)
(0.000102795 -0.000102795 0.0116288)
(3.48063e-05 -0.000104775 0.0116063)
(-3.48063e-05 -0.000104775 0.0116063)
(-0.000102795 -0.000102795 0.0116288)
(-0.000165498 -9.86795e-05 0.0116737)
(-0.000218338 -9.17317e-05 0.0117406)
(-0.000256091 -8.12574e-05 0.0118246)
(0.000244941 -0.00013035 0.0118508)
(0.000208901 -0.000147136 0.0117774)
(0.000158609 -0.000158609 0.0117157)
(9.86795e-05 -0.000165498 0.0116737)
(3.34224e-05 -0.000168865 0.0116527)
(-3.34223e-05 -0.000168865 0.0116527)
(-9.86795e-05 -0.000165498 0.0116737)
(-0.000158609 -0.000158609 0.0117157)
(-0.000208901 -0.000147136 0.0117774)
(-0.000244941 -0.00013035 0.0118508)
(0.000226668 -0.000172778 0.0118802)
(0.000193658 -0.000193658 0.0118288)
(0.000147136 -0.000208901 0.0117774)
(9.17318e-05 -0.000218338 0.0117406)
(3.10611e-05 -0.000223152 0.0117221)
(-3.10611e-05 -0.000223152 0.0117221)
(-9.17317e-05 -0.000218338 0.0117406)
(-0.000147136 -0.000208901 0.0117774)
(-0.000193658 -0.000193658 0.0118288)
(-0.000226668 -0.000172778 0.0118802)
(0.000206197 -0.000206197 0.0118881)
(0.000172778 -0.000226668 0.0118802)
(0.00013035 -0.000244941 0.0118508)
(8.12574e-05 -0.00025609 0.0118246)
(2.73974e-05 -0.00026205 0.0118107)
(-2.73973e-05 -0.00026205 0.0118107)
(-8.12574e-05 -0.000256091 0.0118246)
(-0.00013035 -0.000244941 0.0118508)
(-0.000172778 -0.000226668 0.0118802)
(-0.000206197 -0.000206197 0.0118881)
(6.85382e-05 6.85382e-05 0.0119319)
(6.11949e-05 8.27189e-05 0.011956)
(4.88038e-05 9.44095e-05 0.0119505)
(3.13568e-05 0.00010213 0.0119403)
(1.07244e-05 0.000106196 0.0119342)
(-1.07244e-05 0.000106196 0.0119342)
(-3.13567e-05 0.00010213 0.0119403)
(-4.88038e-05 9.44096e-05 0.0119505)
(-6.11949e-05 8.27189e-05 0.011956)
(-6.85382e-05 6.85381e-05 0.0119319)
(8.27189e-05 6.11949e-05 0.011956)
(7.55052e-05 7.55053e-05 0.011943)
(6.03004e-05 8.63902e-05 0.0119196)
(3.87417e-05 9.35567e-05 0.0119012)
(1.33097e-05 9.72373e-05 0.0118915)
(-1.33097e-05 9.72373e-05 0.0118915)
(-3.87417e-05 9.35567e-05 0.0119012)
(-6.03004e-05 8.63901e-05 0.0119196)
(-7.55052e-05 7.55052e-05 0.011943)
(-8.27189e-05 6.11949e-05 0.011956)
(9.44095e-05 4.88038e-05 0.0119505)
(8.63902e-05 6.03004e-05 0.0119196)
(6.8903e-05 6.8903e-05 0.0118885)
(4.41778e-05 7.44938e-05 0.0118662)
(1.51822e-05 7.73045e-05 0.0118548)
(-1.51822e-05 7.73045e-05 0.0118548)
(-4.41778e-05 7.44938e-05 0.0118662)
(-6.8903e-05 6.8903e-05 0.0118885)
(-8.63901e-05 6.03004e-05 0.0119196)
(-9.44095e-05 4.88038e-05 0.0119505)
(0.00010213 3.13568e-05 0.0119403)
(9.35567e-05 3.87417e-05 0.0119012)
(7.44938e-05 4.41778e-05 0.0118662)
(4.76938e-05 4.76938e-05 0.0118417)
(1.63875e-05 4.94477e-05 0.0118293)
(-1.63875e-05 4.94477e-05 0.0118293)
(-4.76938e-05 4.76938e-05 0.0118417)
(-7.44938e-05 4.41778e-05 0.0118662)
(-9.35567e-05 3.87417e-05 0.0119012)
(-0.00010213 3.13568e-05 0.0119403)
(0.000106196 1.07244e-05 0.0119342)
(9.72372e-05 1.33097e-05 0.0118915)
(7.73045e-05 1.51822e-05 0.0118548)
(4.94477e-05 1.63875e-05 0.0118293)
(1.69858e-05 1.69858e-05 0.0118164)
(-1.69858e-05 1.69858e-05 0.0118164)
(-4.94477e-05 1.63875e-05 0.0118293)
(-7.73045e-05 1.51822e-05 0.0118548)
(-9.72372e-05 1.33098e-05 0.0118915)
(-0.000106196 1.07245e-05 0.0119342)
(0.000106196 -1.07244e-05 0.0119342)
(9.72373e-05 -1.33097e-05 0.0118915)
(7.73045e-05 -1.51822e-05 0.0118548)
(4.94477e-05 -1.63875e-05 0.0118293)
(1.69858e-05 -1.69858e-05 0.0118164)
(-1.69858e-05 -1.69858e-05 0.0118164)
(-4.94477e-05 -1.63875e-05 0.0118293)
(-7.73045e-05 -1.51822e-05 0.0118548)
(-9.72372e-05 -1.33097e-05 0.0118915)
(-0.000106196 -1.07244e-05 0.0119342)
(0.00010213 -3.13567e-05 0.0119403)
(9.35567e-05 -3.87417e-05 0.0119012)
(7.44938e-05 -4.41778e-05 0.0118662)
(4.76938e-05 -4.76938e-05 0.0118417)
(1.63875e-05 -4.94477e-05 0.0118293)
(-1.63875e-05 -4.94477e-05 0.0118293)
(-4.76938e-05 -4.76938e-05 0.0118417)
(-7.44938e-05 -4.41778e-05 0.0118662)
(-9.35567e-05 -3.87417e-05 0.0119012)
(-0.00010213 -3.13568e-05 0.0119403)
(9.44095e-05 -4.88038e-05 0.0119505)
(8.63901e-05 -6.03004e-05 0.0119196)
(6.8903e-05 -6.8903e-05 0.0118885)
(4.41778e-05 -7.44938e-05 0.0118662)
(1.51822e-05 -7.73045e-05 0.0118548)
(-1.51822e-05 -7.73045e-05 0.0118548)
(-4.41778e-05 -7.44938e-05 0.0118662)
(-6.8903e-05 -6.8903e-05 0.0118885)
(-8.63902e-05 -6.03004e-05 0.0119196)
(-9.44096e-05 -4.88039e-05 0.0119505)
(8.27189e-05 -6.11949e-05 0.011956)
(7.55052e-05 -7.55052e-05 0.011943)
(6.03004e-05 -8.63901e-05 0.0119196)
(3.87417e-05 -9.35567e-05 0.0119012)
(1.33098e-05 -9.72372e-05 0.0118915)
(-1.33097e-05 -9.72372e-05 0.0118915)
(-3.87417e-05 -9.35567e-05 0.0119012)
(-6.03004e-05 -8.63902e-05 0.0119196)
(-7.55053e-05 -7.55053e-05 0.011943)
(-8.27189e-05 -6.11949e-05 0.011956)
(6.85382e-05 -6.85381e-05 0.0119319)
(6.11949e-05 -8.27189e-05 0.011956)
(4.88038e-05 -9.44095e-05 0.0119505)
(3.13568e-05 -0.00010213 0.0119403)
(1.07244e-05 -0.000106196 0.0119342)
(-1.07244e-05 -0.000106196 0.0119342)
(-3.13568e-05 -0.00010213 0.0119403)
(-4.88039e-05 -9.44096e-05 0.0119505)
(-6.11949e-05 -8.27189e-05 0.011956)
(-6.85381e-05 -6.85381e-05 0.0119319)
(2.24512e-05 2.24512e-05 0.0119191)
(2.05126e-05 2.80196e-05 0.0119605)
(1.67986e-05 3.27385e-05 0.011969)
(1.09307e-05 3.60289e-05 0.0119686)
(3.76231e-06 3.7792e-05 0.0119674)
(-3.76233e-06 3.7792e-05 0.0119674)
(-1.09307e-05 3.60289e-05 0.0119686)
(-1.67986e-05 3.27385e-05 0.011969)
(-2.05126e-05 2.80196e-05 0.0119605)
(-2.24512e-05 2.24513e-05 0.0119191)
(2.80196e-05 2.05126e-05 0.0119605)
(2.65383e-05 2.65383e-05 0.0119694)
(2.18017e-05 3.13418e-05 0.0119634)
(1.42496e-05 3.46705e-05 0.0119567)
(4.93763e-06 3.64187e-05 0.011953)
(-4.93763e-06 3.64188e-05 0.011953)
(-1.42496e-05 3.46705e-05 0.0119567)
(-2.18016e-05 3.13418e-05 0.0119634)
(-2.65383e-05 2.65384e-05 0.0119694)
(-2.80196e-05 2.05126e-05 0.0119605)
(3.27385e-05 1.67986e-05 0.011969)
(3.13418e-05 2.18017e-05 0.0119634)
(2.58181e-05 2.58181e-05 0.0119517)
(1.68915e-05 2.85849e-05 0.0119424)
(5.86331e-06 3.00173e-05 0.0119375)
(-5.8633e-06 3.00173e-05 0.0119375)
(-1.68914e-05 2.85849e-05 0.0119424)
(-2.58181e-05 2.58181e-05 0.0119517)
(-3.13418e-05 2.18017e-05 0.0119634)
(-3.27385e-05 1.67986e-05 0.011969)
(3.60289e-05 1.09307e-05 0.0119686)
(3.46705e-05 1.42496e-05 0.0119567)
(2.85849e-05 1.68915e-05 0.0119424)
(1.87092e-05 1.87092e-05 0.0119317)
(6.49882e-06 1.9646e-05 0.011926)
(-6.49879e-06 1.9646e-05 0.011926)
(-1.87092e-05 1.87092e-05 0.0119317)
(-2.85849e-05 1.68915e-05 0.0119424)
(-3.46705e-05 1.42496e-05 0.0119567)
(-3.60289e-05 1.09307e-05 0.0119686)
(3.7792e-05 3.76231e-06 0.0119674)
(3.64187e-05 4.93765e-06 0.011953)
(3.00173e-05 5.86332e-06 0.0119375)
(1.9646e-05 6.49883e-06 0.011926)
(6.82525e-06 6.82526e-06 0.01192)
(-6.82523e-06 6.82525e-06 0.01192)
(-1.9646e-05 6.49882e-06 0.011926)
(-3.00173e-05 5.86331e-06 0.0119375)
(-3.64187e-05 4.93764e-06 0.011953)
(-3.7792e-05 3.76233e-06 0.0119674)
(3.7792e-05 -3.76233e-06 0.0119674)
(3.64188e-05 -4.93762e-06 0.011953)
(3.00173e-05 -5.86328e-06 0.0119375)
(1.9646e-05 -6.49879e-06 0.011926)
(6.82525e-06 -6.82522e-06 0.01192)
(-6.82524e-06 -6.82523e-06 0.01192)
(-1.9646e-05 -6.4988e-06 0.011926)
(-3.00173e-05 -5.8633e-06 0.0119375)
(-3.64187e-05 -4.93763e-06 0.011953)
(-3.7792e-05 -3.76232e-06 0.0119674)
(3.6029e-05 -1.09307e-05 0.0119686)
(3.46705e-05 -1.42496e-05 0.0119567)
(2.85849e-05 -1.68914e-05 0.0119424)
(1.87092e-05 -1.87091e-05 0.0119317)
(6.49881e-06 -1.9646e-05 0.011926)
(-6.49881e-06 -1.9646e-05 0.011926)
(-1.87092e-05 -1.87092e-05 0.0119317)
(-2.85849e-05 -1.68914e-05 0.0119424)
(-3.46705e-05 -1.42496e-05 0.0119567)
(-3.60289e-05 -1.09307e-05 0.0119686)
(3.27386e-05 -1.67986e-05 0.011969)
(3.13419e-05 -2.18016e-05 0.0119634)
(2.58181e-05 -2.58181e-05 0.0119517)
(1.68914e-05 -2.85849e-05 0.0119424)
(5.8633e-06 -3.00173e-05 0.0119375)
(-5.86331e-06 -3.00173e-05 0.0119375)
(-1.68914e-05 -2.85849e-05 0.0119424)
(-2.58181e-05 -2.58181e-05 0.0119517)
(-3.13418e-05 -2.18017e-05 0.0119634)
(-3.27385e-05 -1.67987e-05 0.011969)
(2.80197e-05 -2.05126e-05 0.0119605)
(2.65384e-05 -2.65384e-05 0.0119694)
(2.18017e-05 -3.13419e-05 0.0119634)
(1.42496e-05 -3.46705e-05 0.0119567)
(4.93763e-06 -3.64187e-05 0.011953)
(-4.93763e-06 -3.64187e-05 0.011953)
(-1.42496e-05 -3.46705e-05 0.0119567)
(-2.18017e-05 -3.13418e-05 0.0119634)
(-2.65384e-05 -2.65384e-05 0.0119694)
(-2.80196e-05 -2.05126e-05 0.0119605)
(2.24512e-05 -2.24512e-05 0.0119191)
(2.05126e-05 -2.80196e-05 0.0119605)
(1.67986e-05 -3.27385e-05 0.011969)
(1.09307e-05 -3.6029e-05 0.0119686)
(3.76234e-06 -3.7792e-05 0.0119674)
(-3.76232e-06 -3.7792e-05 0.0119674)
(-1.09307e-05 -3.60289e-05 0.0119686)
(-1.67987e-05 -3.27385e-05 0.011969)
(-2.05126e-05 -2.80196e-05 0.0119605)
(-2.24512e-05 -2.24511e-05 0.0119191)
(7.72137e-06 7.72137e-06 0.0119086)
(7.18106e-06 9.8148e-06 0.0119552)
(5.99782e-06 1.16026e-05 0.0119684)
(3.93862e-06 1.2874e-05 0.0119715)
(1.36264e-06 1.35563e-05 0.0119721)
(-1.36265e-06 1.35563e-05 0.0119721)
(-3.9386e-06 1.2874e-05 0.0119715)
(-5.99779e-06 1.16026e-05 0.0119684)
(-7.18104e-06 9.81481e-06 0.0119552)
(-7.72136e-06 7.72138e-06 0.0119086)
(9.8148e-06 7.18106e-06 0.0119552)
(9.52409e-06 9.52408e-06 0.011972)
(7.96836e-06 1.14217e-05 0.0119726)
(5.26358e-06 1.27657e-05 0.0119709)
(1.83368e-06 1.34773e-05 0.0119697)
(-1.83368e-06 1.34773e-05 0.0119697)
(-5.26356e-06 1.27657e-05 0.0119709)
(-7.96835e-06 1.14217e-05 0.0119726)
(-9.52406e-06 9.52408e-06 0.011972)
(-9.81479e-06 7.18106e-06 0.0119552)
(1.16026e-05 5.99782e-06 0.0119684)
(1.14217e-05 7.96836e-06 0.0119726)
(9.59463e-06 9.59462e-06 0.0119693)
(6.35353e-06 1.07445e-05 0.011966)
(2.21863e-06 1.13477e-05 0.0119641)
(-2.21861e-06 1.13477e-05 0.0119641)
(-6.35351e-06 1.07445e-05 0.011966)
(-9.59462e-06 9.59463e-06 0.0119693)
(-1.14217e-05 7.96836e-06 0.0119726)
(-1.16026e-05 5.99779e-06 0.0119684)
(1.2874e-05 3.93863e-06 0.0119715)
(1.27657e-05 5.26358e-06 0.0119709)
(1.07445e-05 6.35353e-06 0.011966)
(7.1248e-06 7.12479e-06 0.0119619)
(2.49088e-06 7.52849e-06 0.0119597)
(-2.49085e-06 7.52849e-06 0.0119597)
(-7.12478e-06 7.1248e-06 0.0119619)
(-1.07445e-05 6.35353e-06 0.011966)
(-1.27657e-05 5.26359e-06 0.0119709)
(-1.2874e-05 3.93861e-06 0.0119715)
(1.35563e-05 1.36263e-06 0.0119721)
(1.34773e-05 1.83368e-06 0.0119697)
(1.13477e-05 2.21863e-06 0.0119641)
(7.5285e-06 2.49088e-06 0.0119597)
(2.63311e-06 2.6331e-06 0.0119573)
(-2.63307e-06 2.6331e-06 0.0119573)
(-7.52847e-06 2.49088e-06 0.0119597)
(-1.13477e-05 2.21864e-06 0.0119641)
(-1.34772e-05 1.8337e-06 0.0119697)
(-1.35563e-05 1.36265e-06 0.0119721)
(1.35563e-05 -1.36266e-06 0.0119721)
(1.34773e-05 -1.83368e-06 0.0119697)
(1.13477e-05 -2.21861e-06 0.0119641)
(7.5285e-06 -2.49085e-06 0.0119597)
(2.63311e-06 -2.63307e-06 0.0119573)
(-2.63308e-06 -2.63307e-06 0.0119573)
(-7.52847e-06 -2.49086e-06 0.0119597)
(-1.13477e-05 -2.21861e-06 0.0119641)
(-1.34772e-05 -1.83367e-06 0.0119697)
(-1.35563e-05 -1.36265e-06 0.0119721)
(1.2874e-05 -3.9386e-06 0.0119715)
(1.27657e-05 -5.26356e-06 0.0119709)
(1.07445e-05 -6.3535e-06 0.011966)
(7.12481e-06 -7.12477e-06 0.0119619)
(2.49088e-06 -7.52847e-06 0.0119597)
(-2.49086e-06 -7.52847e-06 0.0119597)
(-7.12478e-06 -7.12477e-06 0.0119619)
(-1.07445e-05 -6.35349e-06 0.011966)
(-1.27657e-05 -5.26358e-06 0.0119709)
(-1.28741e-05 -3.93864e-06 0.0119715)
(1.16026e-05 -5.99776e-06 0.0119684)
(1.14217e-05 -7.96832e-06 0.0119726)
(9.59463e-06 -9.59458e-06 0.0119693)
(6.35353e-06 -1.07445e-05 0.011966)
(2.21864e-06 -1.13477e-05 0.0119641)
(-2.2186e-06 -1.13477e-05 0.0119641)
(-6.3535e-06 -1.07445e-05 0.011966)
(-9.59463e-06 -9.59462e-06 0.0119693)
(-1.14218e-05 -7.9684e-06 0.0119726)
(-1.16026e-05 -5.99781e-06 0.0119684)
(9.81483e-06 -7.18104e-06 0.0119552)
(9.52408e-06 -9.52405e-06 0.011972)
(7.96835e-06 -1.14217e-05 0.0119726)
(5.26357e-06 -1.27657e-05 0.0119709)
(1.8337e-06 -1.34772e-05 0.0119697)
(-1.83366e-06 -1.34772e-05 0.0119697)
(-5.26357e-06 -1.27657e-05 0.0119709)
(-7.96842e-06 -1.14218e-05 0.0119726)
(-9.52411e-06 -9.52411e-06 0.011972)
(-9.81478e-06 -7.18104e-06 0.0119552)
(7.72141e-06 -7.72136e-06 0.0119086)
(7.18107e-06 -9.8148e-06 0.0119552)
(5.99779e-06 -1.16026e-05 0.0119684)
(3.9386e-06 -1.2874e-05 0.0119715)
(1.36265e-06 -1.35563e-05 0.0119721)
(-1.36265e-06 -1.35563e-05 0.0119721)
(-3.93865e-06 -1.28741e-05 0.0119715)
(-5.99783e-06 -1.16026e-05 0.0119684)
(-7.18105e-06 -9.81478e-06 0.0119552)
(-7.72136e-06 -7.72133e-06 0.0119086)
(2.57895e-06 2.57894e-06 0.0119053)
(2.4462e-06 3.37279e-06 0.0119534)
(2.08287e-06 4.05116e-06 0.0119681)
(1.38122e-06 4.54348e-06 0.0119723)
(4.8051e-07 4.8079e-06 0.0119735)
(-4.80526e-07 4.80791e-06 0.0119735)
(-1.38123e-06 4.5435e-06 0.0119723)
(-2.08287e-06 4.05123e-06 0.0119681)
(-2.44621e-06 3.37288e-06 0.0119534)
(-2.57893e-06 2.57899e-06 0.0119053)
(3.37278e-06 2.44622e-06 0.0119534)
(3.34659e-06 3.34659e-06 0.0119727)
(2.85e-06 4.09001e-06 0.0119757)
(1.90281e-06 4.62632e-06 0.0119756)
(6.6652e-07 4.91201e-06 0.0119753)
(-6.66498e-07 4.91202e-06 0.0119753)
(-1.90276e-06 4.62635e-06 0.0119756)
(-2.84996e-06 4.09008e-06 0.0119757)
(-3.34665e-06 3.3467e-06 0.0119727)
(-3.37284e-06 2.44624e-06 0.0119534)
(4.05113e-06 2.08288e-06 0.0119681)
(4.08999e-06 2.84999e-06 0.0119757)
(3.49934e-06 3.49933e-06 0.0119753)
(2.34378e-06 3.96765e-06 0.0119741)
(8.23079e-07 4.21549e-06 0.0119735)
(-8.23048e-07 4.2155e-06 0.0119735)
(-2.34373e-06 3.96765e-06 0.0119741)
(-3.49927e-06 3.49932e-06 0.0119753)
(-4.09004e-06 2.85e-06 0.0119757)
(-4.05121e-06 2.08289e-06 0.0119681)
(4.54345e-06 1.38122e-06 0.0119723)
(4.62631e-06 1.90283e-06 0.0119756)
(3.96766e-06 2.34379e-06 0.0119741)
(2.66221e-06 2.66222e-06 0.0119726)
(9.36131e-07 2.83051e-06 0.0119718)
(-9.36102e-07 2.83051e-06 0.0119718)
(-2.66217e-06 2.66221e-06 0.0119726)
(-3.96761e-06 2.34376e-06 0.0119741)
(-4.62632e-06 1.90278e-06 0.0119756)
(-4.54349e-06 1.38124e-06 0.0119723)
(4.8079e-06 4.80505e-07 0.0119735)
(4.91201e-06 6.66533e-07 0.0119753)
(4.21549e-06 8.23085e-07 0.0119735)
(2.8305e-06 9.36138e-07 0.0119718)
(9.958e-07 9.95806e-07 0.0119709)
(-9.95773e-07 9.95804e-07 0.0119709)
(-2.83048e-06 9.36129e-07 0.0119718)
(-4.21546e-06 8.23069e-07 0.0119735)
(-4.91199e-06 6.66509e-07 0.0119753)
(-4.80791e-06 4.80533e-07 0.0119735)
(4.8079e-06 -4.80537e-07 0.0119735)
(4.91202e-06 -6.665e-07 0.0119753)
(4.21549e-06 -8.23046e-07 0.0119735)
(2.8305e-06 -9.361e-07 0.0119718)
(9.95797e-07 -9.9577e-07 0.0119709)
(-9.95779e-07 -9.95775e-07 0.0119709)
(-2.83048e-06 -9.36112e-07 0.0119718)
(-4.21546e-06 -8.2306e-07 0.0119735)
(-4.91199e-06 -6.66516e-07 0.0119753)
(-4.80791e-06 -4.80526e-07 0.0119735)
(4.5435e-06 -1.38122e-06 0.0119723)
(4.62636e-06 -1.90276e-06 0.0119756)
(3.96765e-06 -2.34373e-06 0.0119741)
(2.6622e-06 -2.66218e-06 0.0119726)
(9.36124e-07 -2.83048e-06 0.0119718)
(-9.36115e-07 -2.83048e-06 0.0119718)
(-2.66219e-06 -2.66219e-06 0.0119726)
(-3.96763e-06 -2.34376e-06 0.0119741)
(-4.62632e-06 -1.90281e-06 0.0119756)
(-4.54348e-06 -1.38125e-06 0.0119723)
(4.05123e-06 -2.08286e-06 0.0119681)
(4.09007e-06 -2.84998e-06 0.0119757)
(3.49931e-06 -3.49929e-06 0.0119753)
(2.34376e-06 -3.96762e-06 0.0119741)
(8.23074e-07 -4.21546e-06 0.0119735)
(-8.23067e-07 -4.21546e-06 0.0119735)
(-2.34376e-06 -3.96764e-06 0.0119741)
(-3.49932e-06 -3.49932e-06 0.0119753)
(-4.09003e-06 -2.85002e-06 0.0119757)
(-4.05117e-06 -2.08289e-06 0.0119681)
(3.37287e-06 -2.44622e-06 0.0119534)
(3.34667e-06 -3.34668e-06 0.0119727)
(2.85e-06 -4.09006e-06 0.0119757)
(1.9028e-06 -4.62632e-06 0.0119756)
(6.66512e-07 -4.91199e-06 0.0119753)
(-6.66533e-07 -4.91199e-06 0.0119753)
(-1.90281e-06 -4.62631e-06 0.0119756)
(-2.85001e-06 -4.09002e-06 0.0119757)
(-3.34663e-06 -3.34663e-06 0.0119727)
(-3.3728e-06 -2.44622e-06 0.0119534)
(2.57897e-06 -2.57893e-06 0.0119053)
(2.44622e-06 -3.37282e-06 0.0119534)
(2.08291e-06 -4.05119e-06 0.0119681)
(1.38127e-06 -4.54349e-06 0.0119723)
(4.80534e-07 -4.80791e-06 0.0119735)
(-4.8053e-07 -4.8079e-06 0.0119735)
(-1.38123e-06 -4.54347e-06 0.0119723)
(-2.08289e-06 -4.05116e-06 0.0119681)
(-2.44624e-06 -3.3728e-06 0.0119534)
(-2.57894e-06 -2.57894e-06 0.0119053)
(8.67031e-07 8.6703e-07 0.0119042)
(8.31544e-07 1.15313e-06 0.0119528)
(7.15579e-07 1.39858e-06 0.0119679)
(4.76923e-07 1.58044e-06 0.0119726)
(1.66422e-07 1.67842e-06 0.011974)
(-1.66435e-07 1.67842e-06 0.011974)
(-4.76899e-07 1.58042e-06 0.0119726)
(-7.15541e-07 1.39855e-06 0.0119679)
(-8.31507e-07 1.15311e-06 0.0119528)
(-8.67004e-07 8.67053e-07 0.0119042)
(1.15312e-06 8.31524e-07 0.0119528)
(1.1604e-06 1.16039e-06 0.011973)
(9.99771e-07 1.43717e-06 0.0119767)
(6.72285e-07 1.64044e-06 0.0119773)
(2.36374e-07 1.74958e-06 0.0119773)
(-2.36386e-07 1.74959e-06 0.0119773)
(-6.72298e-07 1.64044e-06 0.0119773)
(-9.99756e-07 1.43715e-06 0.0119767)
(-1.16034e-06 1.16037e-06 0.011973)
(-1.15309e-06 8.31526e-07 0.0119528)
(1.39857e-06 7.15569e-07 0.0119679)
(1.43718e-06 9.99773e-07 0.0119767)
(1.2462e-06 1.2462e-06 0.0119774)
(8.41856e-07 1.42738e-06 0.0119771)
(2.96928e-07 1.52422e-06 0.0119769)
(-2.96928e-07 1.52422e-06 0.0119769)
(-8.41862e-07 1.4274e-06 0.0119771)
(-1.24619e-06 1.24621e-06 0.0119774)
(-1.43714e-06 9.99778e-07 0.0119767)
(-1.39854e-06 7.1556e-07 0.0119679)
(1.58045e-06 4.7693e-07 0.0119726)
(1.64045e-06 6.72291e-07 0.0119773)
(1.42738e-06 8.41853e-07 0.0119771)
(9.66787e-07 9.66787e-07 0.0119766)
(3.41567e-07 1.03352e-06 0.0119763)
(-3.41556e-07 1.03353e-06 0.0119763)
(-9.66787e-07 9.66805e-07 0.0119766)
(-1.42737e-06 8.41879e-07 0.0119771)
(-1.64042e-06 6.72306e-07 0.0119773)
(-1.58042e-06 4.76928e-07 0.0119726)
(1.67843e-06 1.66428e-07 0.011974)
(1.74958e-06 2.36365e-07 0.0119773)
(1.52421e-06 2.96918e-07 0.0119769)
(1.03353e-06 3.41564e-07 0.0119763)
(3.65393e-07 3.65391e-07 0.011976)
(-3.6537e-07 3.65396e-07 0.011976)
(-1.03351e-06 3.41582e-07 0.0119763)
(-1.5242e-06 2.9695e-07 0.0119769)
(-1.74956e-06 2.3639e-07 0.0119773)
(-1.67842e-06 1.66429e-07 0.011974)
(1.67842e-06 -1.66441e-07 0.011974)
(1.74959e-06 -2.36386e-07 0.0119773)
(1.52422e-06 -2.96928e-07 0.0119769)
(1.03353e-06 -3.41554e-07 0.0119763)
(3.65399e-07 -3.65365e-07 0.011976)
(-3.65365e-07 -3.65363e-07 0.011976)
(-1.03351e-06 -3.41546e-07 0.0119763)
(-1.52421e-06 -2.96917e-07 0.0119769)
(-1.74958e-06 -2.36384e-07 0.0119773)
(-1.67842e-06 -1.66444e-07 0.011974)
(1.58043e-06 -4.7691e-07 0.0119726)
(1.64045e-06 -6.72285e-07 0.0119773)
(1.42739e-06 -8.41853e-07 0.0119771)
(9.66812e-07 -9.66776e-07 0.0119766)
(3.41584e-07 -1.0335e-06 0.0119763)
(-3.41551e-07 -1.0335e-06 0.0119763)
(-9.66787e-07 -9.66784e-07 0.0119766)
(-1.42739e-06 -8.41859e-07 0.0119771)
(-1.64044e-06 -6.72292e-07 0.0119773)
(-1.58044e-06 -4.76912e-07 0.0119726)
(1.39856e-06 -7.15538e-07 0.0119679)
(1.43716e-06 -9.99756e-07 0.0119767)
(1.24621e-06 -1.24618e-06 0.0119774)
(8.41888e-07 -1.42736e-06 0.0119771)
(2.96947e-07 -1.5242e-06 0.0119769)
(-2.96926e-07 -1.52421e-06 0.0119769)
(-8.41862e-07 -1.42738e-06 0.0119771)
(-1.2462e-06 -1.24619e-06 0.0119774)
(-1.43715e-06 -9.99758e-07 0.0119767)
(-1.39858e-06 -7.15563e-07 0.0119679)
(1.15311e-06 -8.31489e-07 0.0119528)
(1.16037e-06 -1.16033e-06 0.011973)
(9.99786e-07 -1.43711e-06 0.0119767)
(6.72315e-07 -1.6404e-06 0.0119773)
(2.36385e-07 -1.74956e-06 0.0119773)
(-2.36387e-07 -1.74957e-06 0.0119773)
(-6.72291e-07 -1.64043e-06 0.0119773)
(-9.99765e-07 -1.43715e-06 0.0119767)
(-1.16038e-06 -1.16039e-06 0.011973)
(-1.15314e-06 -8.31562e-07 0.0119528)
(8.67035e-07 -8.66985e-07 0.0119042)
(8.31537e-07 -1.15305e-06 0.0119528)
(7.15568e-07 -1.39851e-06 0.0119679)