/*--------------------------------*- C++ -*----------------------------------*\
| =========                 |                                                 |
| \\      /  F ield         | OpenFOAM: The Open Source CFD Toolbox           |
|  \\    /   O peration     | Version:  2412                                  |
|   \\  /    A nd           | Website:  www.openfoam.com                      |
|    \\/     M anipulation  |                                                 |
\*---------------------------------------------------------------------------*/
FoamFile
{
    version     2.0;
    format      ascii;
    arch        "LSB;label=32;scalar=64";
    class       volVectorField;
    location    "9.2";
    object      U;
}
// * * * * * * * * * * * * * * * * * * * * * * * * * * * * * * * * * * * * * //

dimensions      [0 1 -1 0 0 0 0];

internalField   nonuniform List<vector> 
15000
(
(0.00120103 0.00120103 0.0103813)
(0.000887034 0.0011217 0.0103292)
(0.000604327 0.00109412 0.0102862)
(0.000354841 0.00106744 0.0102585)
(0.000116557 0.00105523 0.0102457)
(-0.000116557 0.00105523 0.0102457)
(-0.000354841 0.00106744 0.0102585)
(-0.000604327 0.00109412 0.0102862)
(-0.000887034 0.0011217 0.0103292)
(-0.00120103 0.00120103 0.0103813)
(0.0011217 0.000887034 0.0103292)
(0.000834649 0.000834649 0.0102633)
(0.000571511 0.00079745 0.0102214)
(0.000333586 0.000771422 0.0101994)
(0.000109507 0.000758943 0.0101902)
(-0.000109507 0.000758943 0.0101902)
(-0.000333586 0.000771422 0.0101994)
(-0.000571511 0.00079745 0.0102214)
(-0.000834649 0.000834649 0.0102633)
(-0.0011217 0.000887034 0.0103292)
(0.00109412 0.000604327 0.0102862)
(0.00079745 0.000571511 0.0102214)
(0.000542521 0.000542521 0.010188)
(0.000315161 0.000521856 0.0101727)
(0.00010329 0.00051158 0.0101668)
(-0.00010329 0.00051158 0.0101668)
(-0.000315161 0.000521856 0.0101727)
(-0.000542521 0.000542521 0.010188)
(-0.00079745 0.000571511 0.0102214)
(-0.00109412 0.000604327 0.0102862)
(0.00106744 0.000354841 0.0102585)
(0.000771422 0.000333586 0.0101994)
(0.000521856 0.000315161 0.0101727)
(0.000301985 0.000301985 0.0101613)
(9.88127e-05 0.000295342 0.0101569)
(-9.88127e-05 0.000295342 0.0101569)
(-0.000301985 0.000301985 0.0101613)
(-0.000521856 0.000315161 0.0101727)
(-0.000771422 0.000333586 0.0101994)
(-0.00106744 0.000354841 0.0102585)
(0.00105523 0.000116557 0.0102457)
(0.000758943 0.000109507 0.0101902)
(0.00051158 0.00010329 0.0101668)
(0.000295342 9.88127e-05 0.0101569)
(9.65423e-05 9.65423e-05 0.010153)
(-9.65423e-05 9.65423e-05 0.010153)
(-0.000295342 9.88127e-05 0.0101569)
(-0.00051158 0.00010329 0.0101668)
(-0.000758943 0.000109507 0.0101902)
(-0.00105523 0.000116557 0.0102457)
(0.00105523 -0.000116557 0.0102457)
(0.000758943 -0.000109507 0.0101902)
(0.00051158 -0.00010329 0.0101668)
(0.000295342 -9.88127e-05 0.0101569)
(9.65423e-05 -9.65423e-05 0.010153)
(-9.65423e-05 -9.65423e-05 0.010153)
(-0.000295342 -9.88127e-05 0.0101569)
(-0.00051158 -0.00010329 0.0101668)
(-0.000758943 -0.000109507 0.0101902)
(-0.00105523 -0.000116557 0.0102457)
(0.00106744 -0.000354841 0.0102585)
(0.000771422 -0.000333586 0.0101994)
(0.000521856 -0.000315161 0.0101727)
(0.000301985 -0.000301985 0.0101613)
(9.88127e-05 -0.000295342 0.0101569)
(-9.88127e-05 -0.000295342 0.0101569)
(-0.000301985 -0.000301985 0.0101613)
(-0.000521856 -0.000315161 0.0101727)
(-0.000771422 -0.000333586 0.0101994)
(-0.00106744 -0.000354841 0.0102585)
(0.00109412 -0.000604327 0.0102862)
(0.00079745 -0.000571511 0.0102214)
(0.000542521 -0.000542521 0.010188)
(0.000315161 -0.000521856 0.0101727)
(0.00010329 -0.00051158 0.0101668)
(-0.00010329 -0.00051158 0.0101668)
(-0.000315161 -0.000521856 0.0101727)
(-0.000542521 -0.000542521 0.010188)
(-0.00079745 -0.000571511 0.0102214)
(-0.00109412 -0.000604327 0.0102862)
(0.0011217 -0.000887034 0.0103292)
(0.000834649 -0.000834649 0.0102633)
(0.000571511 -0.00079745 0.0102214)
(0.000333586 -0.000771422 0.0101994)
(0.000109507 -0.000758943 0.0101902)
(-0.000109507 -0.000758943 0.0101902)
(-0.000333586 -0.000771422 0.0101994)
(-0.000571511 -0.00079745 0.0102214)
(-0.000834649 -0.000834649 0.0102633)
(-0.0011217 -0.000887034 0.0103292)
(0.00120103 -0.00120103 0.0103813)
(0.000887034 -0.0011217 0.0103292)
(0.000604327 -0.00109412 0.0102862)
(0.000354841 -0.00106744 0.0102585)
(0.000116557 -0.00105523 0.0102457)
(-0.000116557 -0.00105523 0.0102457)
(-0.000354841 -0.00106744 0.0102585)
(-0.000604327 -0.00109412 0.0102862)
(-0.000887034 -0.0011217 0.0103292)
(-0.00120103 -0.00120103 0.0103813)
(0.00082972 0.00082972 0.0126925)
(0.000658501 0.000879642 0.0126595)
(0.000469876 0.000908692 0.0125624)
(0.00028136 0.000919819 0.0124693)
(9.32076e-05 0.000924585 0.0124167)
(-9.32076e-05 0.000924585 0.0124167)
(-0.00028136 0.000919819 0.0124693)
(-0.000469876 0.000908692 0.0125624)
(-0.000658501 0.000879642 0.0126595)
(-0.00082972 0.00082972 0.0126925)
(0.000879642 0.000658501 0.0126595)
(0.000684166 0.000684166 0.0124898)
(0.000480039 0.000690879 0.0122995)
(0.000283133 0.000688618 0.0121568)
(9.33108e-05 0.000686432 0.0120832)
(-9.33108e-05 0.000686432 0.0120832)
(-0.000283133 0.000688618 0.0121568)
(-0.000480039 0.000690879 0.0122995)
(-0.000684166 0.000684166 0.0124898)
(-0.000879642 0.000658501 0.0126595)
(0.000908692 0.000469876 0.0125624)
(0.000690879 0.000480039 0.0122995)
(0.000477427 0.000477427 0.0120629)
(0.000278657 0.00047125 0.0119012)
(9.14538e-05 0.00046736 0.0118211)
(-9.14538e-05 0.00046736 0.0118211)
(-0.000278657 0.00047125 0.0119012)
(-0.000477427 0.000477427 0.0120629)
(-0.000690879 0.000480039 0.0122995)
(-0.000908692 0.000469876 0.0125624)
(0.000919819 0.00028136 0.0124693)
(0.000688618 0.000283133 0.0121568)
(0.00047125 0.000278657 0.0119012)
(0.000273431 0.000273431 0.0117339)
(8.95213e-05 0.000270401 0.0116527)
(-8.95213e-05 0.000270401 0.0116527)
(-0.000273431 0.000273431 0.0117339)
(-0.00047125 0.000278657 0.0119012)
(-0.000688618 0.000283133 0.0121568)
(-0.000919819 0.00028136 0.0124693)
(0.000924585 9.32076e-05 0.0124167)
(0.000686432 9.33108e-05 0.0120832)
(0.00046736 9.14538e-05 0.0118211)
(0.000270401 8.95213e-05 0.0116527)
(8.84266e-05 8.84266e-05 0.0115714)
(-8.84266e-05 8.84266e-05 0.0115714)
(-0.000270401 8.95213e-05 0.0116527)
(-0.00046736 9.14538e-05 0.0118211)
(-0.000686432 9.33108e-05 0.0120832)
(-0.000924585 9.32076e-05 0.0124167)
(0.000924585 -9.32076e-05 0.0124167)
(0.000686432 -9.33108e-05 0.0120832)
(0.00046736 -9.14538e-05 0.0118211)
(0.000270401 -8.95213e-05 0.0116527)
(8.84266e-05 -8.84266e-05 0.0115714)
(-8.84266e-05 -8.84266e-05 0.0115714)
(-0.000270401 -8.95213e-05 0.0116527)
(-0.00046736 -9.14538e-05 0.0118211)
(-0.000686432 -9.33108e-05 0.0120832)
(-0.000924585 -9.32076e-05 0.0124167)
(0.000919819 -0.00028136 0.0124693)
(0.000688618 -0.000283133 0.0121568)
(0.00047125 -0.000278657 0.0119012)
(0.000273431 -0.000273431 0.0117339)
(8.95213e-05 -0.000270401 0.0116527)
(-8.95213e-05 -0.000270401 0.0116527)
(-0.000273431 -0.000273431 0.0117339)
(-0.00047125 -0.000278657 0.0119012)
(-0.000688618 -0.000283133 0.0121568)
(-0.000919819 -0.00028136 0.0124693)
(0.000908692 -0.000469876 0.0125624)
(0.000690879 -0.000480039 0.0122995)
(0.000477427 -0.000477427 0.0120629)
(0.000278657 -0.00047125 0.0119012)
(9.14538e-05 -0.00046736 0.0118211)
(-9.14538e-05 -0.00046736 0.0118211)
(-0.000278657 -0.00047125 0.0119012)
(-0.000477427 -0.000477427 0.0120629)
(-0.000690879 -0.000480039 0.0122995)
(-0.000908692 -0.000469876 0.0125624)
(0.000879642 -0.000658501 0.0126595)
(0.000684166 -0.000684166 0.0124898)
(0.000480039 -0.000690879 0.0122995)
(0.000283133 -0.000688618 0.0121568)
(9.33108e-05 -0.000686432 0.0120832)
(-9.33108e-05 -0.000686432 0.0120832)
(-0.000283133 -0.000688618 0.0121568)
(-0.000480039 -0.000690879 0.0122995)
(-0.000684166 -0.000684166 0.0124898)
(-0.000879642 -0.000658501 0.0126595)
(0.00082972 -0.00082972 0.0126925)
(0.000658501 -0.000879642 0.0126595)
(0.000469876 -0.000908692 0.0125624)
(0.00028136 -0.000919819 0.0124693)
(9.32076e-05 -0.000924585 0.0124167)
(-9.32076e-05 -0.000924585 0.0124167)
(-0.00028136 -0.000919819 0.0124693)
(-0.000469876 -0.000908692 0.0125624)
(-0.000658501 -0.000879642 0.0126595)
(-0.00082972 -0.00082972 0.0126925)
(0.00066444 0.00066444 0.012524)
(0.000557839 0.000753967 0.0128279)
(0.000421543 0.000814277 0.012942)
(0.000261033 0.000849099 0.012965)
(8.79834e-05 0.000865292 0.0129623)
(-8.79834e-05 0.000865292 0.0129623)
(-0.000261033 0.000849099 0.012965)
(-0.000421543 0.000814277 0.012942)
(-0.000557839 0.000753967 0.0128279)
(-0.00066444 0.00066444 0.012524)
(0.000753967 0.000557839 0.0128279)
(0.000629292 0.000629292 0.0129625)
(0.000465826 0.000670133 0.0129269)
(0.000284455 0.000690063 0.0128529)
(9.53626e-05 0.000698243 0.0128038)
(-9.53626e-05 0.000698243 0.0128038)
(-0.000284455 0.000690063 0.0128529)
(-0.000465826 0.000670133 0.0129269)
(-0.000629292 0.000629292 0.0129625)
(-0.000753967 0.000557839 0.0128279)
(0.000814277 0.000421543 0.012942)
(0.000670133 0.000465826 0.0129269)
(0.000488842 0.000488842 0.0127872)
(0.000295337 0.000498504 0.0126541)
(9.8564e-05 0.000501881 0.0125795)
(-9.8564e-05 0.000501881 0.0125795)
(-0.000295337 0.000498504 0.0126541)
(-0.000488842 0.000488842 0.0127872)
(-0.000670133 0.000465826 0.0129269)
(-0.000814277 0.000421543 0.012942)
(0.000849099 0.000261033 0.012965)
(0.000690063 0.000284455 0.0128529)
(0.000498504 0.000295337 0.0126541)
(0.000299271 0.000299271 0.0124916)
(9.96077e-05 0.000300386 0.0124053)
(-9.96077e-05 0.000300386 0.0124053)
(-0.000299271 0.000299271 0.0124916)
(-0.000498504 0.000295337 0.0126541)
(-0.000690063 0.000284455 0.0128529)
(-0.000849099 0.000261033 0.012965)
(0.000865292 8.79834e-05 0.0129623)
(0.000698243 9.53626e-05 0.0128038)
(0.000501881 9.8564e-05 0.0125795)
(0.000300386 9.96077e-05 0.0124053)
(9.98518e-05 9.98518e-05 0.0123149)
(-9.98518e-05 9.98518e-05 0.0123149)
(-0.000300386 9.96077e-05 0.0124053)
(-0.000501881 9.8564e-05 0.0125795)
(-0.000698243 9.53626e-05 0.0128038)
(-0.000865292 8.79834e-05 0.0129623)
(0.000865292 -8.79834e-05 0.0129623)
(0.000698243 -9.53626e-05 0.0128038)
(0.000501881 -9.8564e-05 0.0125795)
(0.000300386 -9.96077e-05 0.0124053)
(9.98518e-05 -9.98518e-05 0.0123149)
(-9.98518e-05 -9.98518e-05 0.0123149)
(-0.000300386 -9.96077e-05 0.0124053)
(-0.000501881 -9.8564e-05 0.0125795)
(-0.000698243 -9.53626e-05 0.0128038)
(-0.000865292 -8.79834e-05 0.0129623)
(0.000849099 -0.000261033 0.012965)
(0.000690063 -0.000284455 0.0128529)
(0.000498504 -0.000295337 0.0126541)
(0.000299271 -0.000299271 0.0124916)
(9.96077e-05 -0.000300386 0.0124053)
(-9.96077e-05 -0.000300386 0.0124053)
(-0.000299271 -0.000299271 0.0124916)
(-0.000498504 -0.000295337 0.0126541)
(-0.000690063 -0.000284455 0.0128529)
(-0.000849099 -0.000261033 0.012965)
(0.000814277 -0.000421543 0.012942)
(0.000670133 -0.000465826 0.0129269)
(0.000488842 -0.000488842 0.0127872)
(0.000295337 -0.000498504 0.0126541)
(9.8564e-05 -0.000501881 0.0125795)
(-9.8564e-05 -0.000501881 0.0125795)
(-0.000295337 -0.000498504 0.0126541)
(-0.000488842 -0.000488842 0.0127872)
(-0.000670133 -0.000465826 0.0129269)
(-0.000814277 -0.000421543 0.012942)
(0.000753967 -0.000557839 0.0128279)
(0.000629292 -0.000629292 0.0129625)
(0.000465826 -0.000670133 0.0129269)
(0.000284455 -0.000690063 0.0128529)
(9.53626e-05 -0.000698243 0.0128038)
(-9.53626e-05 -0.000698243 0.0128038)
(-0.000284455 -0.000690063 0.0128529)
(-0.000465826 -0.000670133 0.0129269)
(-0.000629292 -0.000629292 0.0129625)
(-0.000753967 -0.000557839 0.0128279)
(0.00066444 -0.00066444 0.012524)
(0.000557839 -0.000753967 0.0128279)
(0.000421543 -0.000814277 0.012942)
(0.000261033 -0.000849099 0.012965)
(8.79834e-05 -0.000865292 0.0129623)
(-8.79834e-05 -0.000865292 0.0129623)
(-0.000261033 -0.000849099 0.012965)
(-0.000421543 -0.000814277 0.012942)
(-0.000557839 -0.000753967 0.0128279)
(-0.00066444 -0.00066444 0.012524)
(0.000363995 0.000363995 0.0127553)
(0.000317532 0.000442417 0.0132553)
(0.000251146 0.000499516 0.0135119)
(0.00015943 0.000536796 0.0136227)
(5.44367e-05 0.000554699 0.0136606)
(-5.44367e-05 0.000554699 0.0136606)
(-0.00015943 0.000536796 0.0136227)
(-0.000251146 0.000499516 0.0135119)
(-0.000317532 0.000442417 0.0132553)
(-0.000363995 0.000363995 0.0127553)
(0.000442417 0.000317532 0.0132553)
(0.00038844 0.00038844 0.01361)
(0.000299992 0.000436445 0.0137081)
(0.000188152 0.000465043 0.0137049)
(6.39165e-05 0.000478286 0.0136853)
(-6.39165e-05 0.000478286 0.0136853)
(-0.000188152 0.000465043 0.0137049)
(-0.000299992 0.000436445 0.0137081)
(-0.00038844 0.00038844 0.01361)
(-0.000442417 0.000317532 0.0132553)
(0.000499516 0.000251146 0.0135119)
(0.000436445 0.000299992 0.0137081)
(0.000332752 0.000332752 0.0136771)
(0.000206837 0.000351659 0.0135916)
(7.00007e-05 0.000360224 0.0135336)
(-7.00007e-05 0.000360224 0.0135336)
(-0.000206837 0.000351659 0.0135916)
(-0.000332752 0.000332752 0.0136771)
(-0.000436445 0.000299992 0.0137081)
(-0.000499516 0.000251146 0.0135119)
(0.000536796 0.00015943 0.0136227)
(0.000465043 0.000188152 0.0137049)
(0.000351659 0.000206837 0.0135916)
(0.000217472 0.000217472 0.0134591)
(7.34454e-05 0.000222242 0.0133809)
(-7.34454e-05 0.000222242 0.0133809)
(-0.000217472 0.000217472 0.0134591)
(-0.000351659 0.000206837 0.0135916)
(-0.000465043 0.000188152 0.0137049)
(-0.000536796 0.00015943 0.0136227)
(0.000554699 5.44367e-05 0.0136606)
(0.000478286 6.39165e-05 0.0136853)
(0.000360224 7.00007e-05 0.0135336)
(0.000222242 7.34454e-05 0.0133809)
(7.49838e-05 7.49838e-05 0.0132947)
(-7.49838e-05 7.49838e-05 0.0132947)
(-0.000222242 7.34454e-05 0.0133809)
(-0.000360224 7.00007e-05 0.0135336)
(-0.000478286 6.39165e-05 0.0136853)
(-0.000554699 5.44367e-05 0.0136606)
(0.000554699 -5.44367e-05 0.0136606)
(0.000478286 -6.39165e-05 0.0136853)
(0.000360224 -7.00007e-05 0.0135336)
(0.000222242 -7.34454e-05 0.0133809)
(7.49838e-05 -7.49838e-05 0.0132947)
(-7.49838e-05 -7.49838e-05 0.0132947)
(-0.000222242 -7.34454e-05 0.0133809)
(-0.000360224 -7.00007e-05 0.0135336)
(-0.000478286 -6.39165e-05 0.0136853)
(-0.000554699 -5.44367e-05 0.0136606)
(0.000536796 -0.00015943 0.0136227)
(0.000465043 -0.000188152 0.0137049)
(0.000351659 -0.000206837 0.0135916)
(0.000217472 -0.000217472 0.0134591)
(7.34454e-05 -0.000222242 0.0133809)
(-7.34454e-05 -0.000222242 0.0133809)
(-0.000217472 -0.000217472 0.0134591)
(-0.000351659 -0.000206837 0.0135916)
(-0.000465043 -0.000188152 0.0137049)
(-0.000536796 -0.00015943 0.0136227)
(0.000499516 -0.000251146 0.0135119)
(0.000436445 -0.000299992 0.0137081)
(0.000332752 -0.000332752 0.0136771)
(0.000206837 -0.000351659 0.0135916)
(7.00007e-05 -0.000360224 0.0135336)
(-7.00007e-05 -0.000360224 0.0135336)
(-0.000206837 -0.000351659 0.0135916)
(-0.000332752 -0.000332752 0.0136771)
(-0.000436445 -0.000299992 0.0137081)
(-0.000499516 -0.000251146 0.0135119)
(0.000442417 -0.000317532 0.0132553)
(0.00038844 -0.00038844 0.01361)
(0.000299992 -0.000436445 0.0137081)
(0.000188152 -0.000465043 0.0137049)
(6.39165e-05 -0.000478286 0.0136853)
(-6.39165e-05 -0.000478286 0.0136853)
(-0.000188152 -0.000465043 0.0137049)
(-0.000299992 -0.000436445 0.0137081)
(-0.00038844 -0.00038844 0.01361)
(-0.000442417 -0.000317532 0.0132553)
(0.000363995 -0.000363995 0.0127553)
(0.000317532 -0.000442417 0.0132553)
(0.000251146 -0.000499516 0.0135119)
(0.00015943 -0.000536796 0.0136227)
(5.44367e-05 -0.000554699 0.0136606)
(-5.44367e-05 -0.000554699 0.0136606)
(-0.00015943 -0.000536796 0.0136227)
(-0.000251146 -0.000499516 0.0135119)
(-0.000317532 -0.000442417 0.0132553)
(-0.000363995 -0.000363995 0.0127553)
(0.000203481 0.000203481 0.0126494)
(0.000181092 0.000252896 0.0132821)
(0.000147598 0.000292234 0.0136459)
(9.53064e-05 0.000319471 0.013829)
(3.28369e-05 0.000332917 0.0139026)
(-3.28369e-05 0.000332917 0.0139026)
(-9.53064e-05 0.000319471 0.013829)
(-0.000147598 0.000292234 0.0136459)
(-0.000181092 0.000252896 0.0132821)
(-0.000203481 0.000203481 0.0126494)
(0.000252896 0.000181092 0.0132821)
(0.000230786 0.000230786 0.013808)
(0.000184262 0.000267636 0.0140273)
(0.000118016 0.000291522 0.014099)
(4.05116e-05 0.000303126 0.0141146)
(-4.05116e-05 0.000303126 0.0141146)
(-0.000118016 0.000291522 0.014099)
(-0.000184262 0.000267636 0.0140273)
(-0.000230786 0.000230786 0.013808)
(-0.000252896 0.000181092 0.0132821)
(0.000292234 0.000147598 0.0136459)
(0.000267636 0.000184262 0.0140273)
(0.000211697 0.000211697 0.0141167)
(0.000134741 0.000229176 0.0141008)
(4.61334e-05 0.000237589 0.0140742)
(-4.61334e-05 0.000237589 0.0140742)
(-0.000134741 0.000229176 0.0141008)
(-0.000211697 0.000211697 0.0141167)
(-0.000267636 0.000184262 0.0140273)
(-0.000292234 0.000147598 0.0136459)
(0.000319471 9.53064e-05 0.013829)
(0.000291522 0.000118016 0.014099)
(0.000229176 0.000134741 0.0141008)
(0.000145308 0.000145308 0.0140319)
(4.96739e-05 0.000150366 0.0139818)
(-4.96739e-05 0.000150366 0.0139818)
(-0.000145308 0.000145308 0.0140319)
(-0.000229176 0.000134741 0.0141008)
(-0.000291522 0.000118016 0.014099)
(-0.000319471 9.53064e-05 0.013829)
(0.000332917 3.28369e-05 0.0139026)
(0.000303126 4.05116e-05 0.0141146)
(0.000237589 4.61334e-05 0.0140742)
(0.000150366 4.96739e-05 0.0139818)
(5.13643e-05 5.13643e-05 0.013922)
(-5.13643e-05 5.13643e-05 0.013922)
(-0.000150366 4.96739e-05 0.0139818)
(-0.000237589 4.61334e-05 0.0140742)
(-0.000303126 4.05116e-05 0.0141146)
(-0.000332917 3.28369e-05 0.0139026)
(0.000332917 -3.28369e-05 0.0139026)
(0.000303126 -4.05116e-05 0.0141146)
(0.000237589 -4.61334e-05 0.0140742)
(0.000150366 -4.96739e-05 0.0139818)
(5.13643e-05 -5.13643e-05 0.013922)
(-5.13643e-05 -5.13643e-05 0.013922)
(-0.000150366 -4.96739e-05 0.0139818)
(-0.000237589 -4.61334e-05 0.0140742)
(-0.000303126 -4.05116e-05 0.0141146)
(-0.000332917 -3.28369e-05 0.0139026)
(0.000319471 -9.53064e-05 0.013829)
(0.000291522 -0.000118016 0.014099)
(0.000229176 -0.000134741 0.0141008)
(0.000145308 -0.000145308 0.0140319)
(4.96739e-05 -0.000150366 0.0139818)
(-4.96739e-05 -0.000150366 0.0139818)
(-0.000145308 -0.000145308 0.0140319)
(-0.000229176 -0.000134741 0.0141008)
(-0.000291522 -0.000118016 0.014099)
(-0.000319471 -9.53064e-05 0.013829)
(0.000292234 -0.000147598 0.0136459)
(0.000267636 -0.000184262 0.0140273)
(0.000211697 -0.000211697 0.0141167)
(0.000134741 -0.000229176 0.0141008)
(4.61334e-05 -0.000237589 0.0140742)
(-4.61334e-05 -0.000237589 0.0140742)
(-0.000134741 -0.000229176 0.0141008)
(-0.000211697 -0.000211697 0.0141167)
(-0.000267636 -0.000184262 0.0140273)
(-0.000292234 -0.000147598 0.0136459)
(0.000252896 -0.000181092 0.0132821)
(0.000230786 -0.000230786 0.013808)
(0.000184262 -0.000267636 0.0140273)
(0.000118016 -0.000291522 0.014099)
(4.05116e-05 -0.000303126 0.0141146)
(-4.05116e-05 -0.000303126 0.0141146)
(-0.000118016 -0.000291522 0.014099)
(-0.000184262 -0.000267636 0.0140273)
(-0.000230786 -0.000230786 0.013808)
(-0.000252896 -0.000181092 0.0132821)
(0.000203481 -0.000203481 0.0126494)
(0.000181092 -0.000252896 0.0132821)
(0.000147598 -0.000292234 0.0136459)
(9.53064e-05 -0.000319471 0.013829)
(3.28369e-05 -0.000332917 0.0139026)
(-3.28369e-05 -0.000332917 0.0139026)
(-9.53064e-05 -0.000319471 0.013829)
(-0.000147598 -0.000292234 0.0136459)
(-0.000181092 -0.000252896 0.0132821)
(-0.000203481 -0.000203481 0.0126494)
(9.30136e-05 9.30136e-05 0.0125688)
(8.60003e-05 0.000121088 0.0132554)
(7.31654e-05 0.000145121 0.0136698)
(4.8399e-05 0.000162723 0.0138905)
(1.68885e-05 0.000171674 0.0139838)
(-1.68885e-05 0.000171674 0.0139838)
(-4.8399e-05 0.000162723 0.0138905)
(-7.31654e-05 0.000145121 0.0136698)
(-8.60003e-05 0.000121088 0.0132554)
(-9.30136e-05 9.30136e-05 0.0125688)
(0.000121088 8.60003e-05 0.0132554)
(0.000116801 0.000116801 0.0138673)
(9.7603e-05 0.000141765 0.014157)
(6.43127e-05 0.000159187 0.0142774)
(2.23898e-05 0.000168014 0.0143174)
(-2.23898e-05 0.000168014 0.0143174)
(-6.43127e-05 0.000159187 0.0142774)
(-9.7603e-05 0.000141765 0.014157)
(-0.000116801 0.000116801 0.0138673)
(-0.000121088 8.60003e-05 0.0132554)
(0.000145121 7.31654e-05 0.0136698)
(0.000141765 9.7603e-05 0.014157)
(0.000117767 0.000117767 0.014328)
(7.73008e-05 0.000131651 0.0143656)
(2.68653e-05 0.000138641 0.0143653)
(-2.68653e-05 0.000138641 0.0143653)
(-7.73008e-05 0.000131651 0.0143656)
(-0.000117767 0.000117767 0.014328)
(-0.000141765 9.7603e-05 0.014157)
(-0.000145121 7.31654e-05 0.0136698)
(0.000162723 4.8399e-05 0.0138905)
(0.000159187 6.43127e-05 0.0142774)
(0.000131651 7.73008e-05 0.0143656)
(8.61648e-05 8.61648e-05 0.014352)
(2.9908e-05 9.06011e-05 0.0143287)
(-2.9908e-05 9.06011e-05 0.0143287)
(-8.61647e-05 8.61647e-05 0.014352)
(-0.000131651 7.73008e-05 0.0143656)
(-0.000159187 6.43127e-05 0.0142774)
(-0.000162723 4.8399e-05 0.0138905)
(0.000171674 1.68885e-05 0.0139838)
(0.000168014 2.23898e-05 0.0143174)
(0.000138641 2.68653e-05 0.0143653)
(9.06011e-05 2.9908e-05 0.0143287)
(3.14262e-05 3.14262e-05 0.0142957)
(-3.14262e-05 3.14262e-05 0.0142957)
(-9.0601e-05 2.9908e-05 0.0143287)
(-0.000138641 2.68653e-05 0.0143653)
(-0.000168014 2.23898e-05 0.0143174)
(-0.000171674 1.68885e-05 0.0139838)
(0.000171674 -1.68885e-05 0.0139838)
(0.000168014 -2.23898e-05 0.0143174)
(0.000138641 -2.68653e-05 0.0143653)
(9.06011e-05 -2.9908e-05 0.0143287)
(3.14262e-05 -3.14262e-05 0.0142957)
(-3.14262e-05 -3.14262e-05 0.0142957)
(-9.0601e-05 -2.9908e-05 0.0143287)
(-0.000138641 -2.68653e-05 0.0143653)
(-0.000168014 -2.23898e-05 0.0143174)
(-0.000171674 -1.68885e-05 0.0139838)
(0.000162723 -4.8399e-05 0.0138905)
(0.000159187 -6.43127e-05 0.0142774)
(0.000131651 -7.73008e-05 0.0143656)
(8.61647e-05 -8.61647e-05 0.014352)
(2.9908e-05 -9.0601e-05 0.0143287)
(-2.9908e-05 -9.0601e-05 0.0143287)
(-8.61647e-05 -8.61647e-05 0.014352)
(-0.000131651 -7.73008e-05 0.0143656)
(-0.000159187 -6.43127e-05 0.0142774)
(-0.000162723 -4.8399e-05 0.0138905)
(0.000145121 -7.31654e-05 0.0136698)
(0.000141765 -9.7603e-05 0.014157)
(0.000117767 -0.000117767 0.014328)
(7.73008e-05 -0.000131651 0.0143656)
(2.68653e-05 -0.000138641 0.0143653)
(-2.68653e-05 -0.000138641 0.0143653)
(-7.73008e-05 -0.000131651 0.0143656)
(-0.000117767 -0.000117767 0.014328)
(-0.000141765 -9.7603e-05 0.014157)
(-0.000145121 -7.31654e-05 0.0136698)
(0.000121088 -8.60003e-05 0.0132554)
(0.000116801 -0.000116801 0.0138673)
(9.7603e-05 -0.000141765 0.014157)
(6.43127e-05 -0.000159187 0.0142774)
(2.23898e-05 -0.000168014 0.0143174)
(-2.23898e-05 -0.000168014 0.0143174)
(-6.43127e-05 -0.000159187 0.0142774)
(-9.7603e-05 -0.000141765 0.014157)
(-0.000116801 -0.000116801 0.0138673)
(-0.000121088 -8.60003e-05 0.0132554)
(9.30136e-05 -9.30136e-05 0.0125688)
(8.60003e-05 -0.000121088 0.0132554)
(7.31654e-05 -0.000145121 0.0136698)
(4.8399e-05 -0.000162723 0.0138905)
(1.68885e-05 -0.000171674 0.0139838)
(-1.68885e-05 -0.000171674 0.0139838)
(-4.8399e-05 -0.000162723 0.0138905)
(-7.31654e-05 -0.000145121 0.0136698)
(-8.60003e-05 -0.000121088 0.0132554)
(-9.30136e-05 -9.30136e-05 0.0125688)
(3.66109e-05 3.66109e-05 0.0125179)
(3.529e-05 4.98797e-05 0.0132246)
(3.1407e-05 6.21324e-05 0.0136612)
(2.12977e-05 7.15993e-05 0.0139003)
(7.53488e-06 7.65547e-05 0.0140038)
(-7.53488e-06 7.65547e-05 0.0140038)
(-2.12977e-05 7.15993e-05 0.0139003)
(-3.1407e-05 6.21324e-05 0.0136612)
(-3.529e-05 4.98797e-05 0.0132246)
(-3.66109e-05 3.66109e-05 0.0125179)
(4.98797e-05 3.529e-05 0.0132246)
(5.12472e-05 5.12473e-05 0.0138761)
(4.50236e-05 6.53252e-05 0.0142035)
(3.0576e-05 7.57987e-05 0.0143527)
(1.08074e-05 8.12941e-05 0.0144081)
(-1.08074e-05 8.12941e-05 0.0144081)
(-3.0576e-05 7.57987e-05 0.0143527)
(-4.50237e-05 6.53252e-05 0.0142035)
(-5.12473e-05 5.12472e-05 0.0138761)
(-4.98797e-05 3.529e-05 0.0132246)
(6.21324e-05 3.1407e-05 0.0136612)
(6.53252e-05 4.50236e-05 0.0142035)
(5.72601e-05 5.72601e-05 0.0144241)
(3.88275e-05 6.62334e-05 0.0144979)
(1.37078e-05 7.09076e-05 0.0145164)
(-1.37078e-05 7.09076e-05 0.0145164)
(-3.88275e-05 6.62334e-05 0.0144979)
(-5.72601e-05 5.72601e-05 0.0144241)
(-6.53252e-05 4.50237e-05 0.0142035)
(-6.21324e-05 3.1407e-05 0.0136612)
(7.15993e-05 2.12977e-05 0.0139003)
(7.57987e-05 3.0576e-05 0.0143527)
(6.62334e-05 3.88275e-05 0.0144979)
(4.48112e-05 4.48112e-05 0.0145247)
(1.58002e-05 4.79051e-05 0.0145219)
(-1.58002e-05 4.79051e-05 0.0145219)
(-4.48112e-05 4.48112e-05 0.0145247)
(-6.62334e-05 3.88275e-05 0.0144979)
(-7.57987e-05 3.0576e-05 0.0143527)
(-7.15993e-05 2.12977e-05 0.0139003)
(7.65547e-05 7.53488e-06 0.0140038)
(8.12941e-05 1.08074e-05 0.0144081)
(7.09076e-05 1.37078e-05 0.0145164)
(4.79051e-05 1.58002e-05 0.0145219)
(1.6878e-05 1.6878e-05 0.0145102)
(-1.6878e-05 1.6878e-05 0.0145102)
(-4.79051e-05 1.58002e-05 0.0145219)
(-7.09076e-05 1.37078e-05 0.0145164)
(-8.12941e-05 1.08074e-05 0.0144081)
(-7.65547e-05 7.53488e-06 0.0140038)
(7.65547e-05 -7.53488e-06 0.0140038)
(8.12941e-05 -1.08074e-05 0.0144081)
(7.09076e-05 -1.37078e-05 0.0145164)
(4.79051e-05 -1.58002e-05 0.0145219)
(1.6878e-05 -1.6878e-05 0.0145102)
(-1.6878e-05 -1.6878e-05 0.0145102)
(-4.79051e-05 -1.58002e-05 0.0145219)
(-7.09076e-05 -1.37078e-05 0.0145164)
(-8.12941e-05 -1.08074e-05 0.0144081)
(-7.65547e-05 -7.53488e-06 0.0140038)
(7.15993e-05 -2.12977e-05 0.0139003)
(7.57987e-05 -3.0576e-05 0.0143527)
(6.62334e-05 -3.88275e-05 0.0144979)
(4.48112e-05 -4.48112e-05 0.0145247)
(1.58002e-05 -4.79051e-05 0.0145219)
(-1.58002e-05 -4.79051e-05 0.0145219)
(-4.48112e-05 -4.48112e-05 0.0145247)
(-6.62334e-05 -3.88275e-05 0.0144979)
(-7.57987e-05 -3.0576e-05 0.0143527)
(-7.15993e-05 -2.12977e-05 0.0139003)
(6.21323e-05 -3.1407e-05 0.0136612)
(6.53252e-05 -4.50237e-05 0.0142035)
(5.72601e-05 -5.72601e-05 0.0144241)
(3.88275e-05 -6.62334e-05 0.0144979)
(1.37078e-05 -7.09076e-05 0.0145164)
(-1.37078e-05 -7.09076e-05 0.0145164)
(-3.88275e-05 -6.62334e-05 0.0144979)
(-5.72601e-05 -5.72601e-05 0.0144241)
(-6.53252e-05 -4.50236e-05 0.0142035)
(-6.21324e-05 -3.1407e-05 0.0136612)
(4.98797e-05 -3.529e-05 0.0132246)
(5.12473e-05 -5.12472e-05 0.0138761)
(4.50237e-05 -6.53252e-05 0.0142035)
(3.0576e-05 -7.57987e-05 0.0143527)
(1.08074e-05 -8.12941e-05 0.0144081)
(-1.08074e-05 -8.12941e-05 0.0144081)
(-3.0576e-05 -7.57987e-05 0.0143527)
(-4.50236e-05 -6.53252e-05 0.0142035)
(-5.12472e-05 -5.12472e-05 0.0138761)
(-4.98797e-05 -3.529e-05 0.0132246)
(3.66109e-05 -3.66109e-05 0.0125179)
(3.529e-05 -4.98797e-05 0.0132246)
(3.1407e-05 -6.21324e-05 0.0136612)
(2.12977e-05 -7.15993e-05 0.0139003)
(7.53488e-06 -7.65547e-05 0.0140038)
(-7.53488e-06 -7.65547e-05 0.0140038)
(-2.12977e-05 -7.15993e-05 0.0139003)
(-3.1407e-05 -6.21324e-05 0.0136612)
(-3.529e-05 -4.98797e-05 0.0132246)
(-3.66109e-05 -3.6611e-05 0.0125179)
(1.24869e-05 1.24869e-05 0.0124894)
(1.27636e-05 1.80376e-05 0.0132011)
(1.20105e-05 2.35243e-05 0.0136455)
(8.39211e-06 2.79698e-05 0.0138921)
(3.01871e-06 3.03602e-05 0.014)
(-3.01871e-06 3.03602e-05 0.014)
(-8.39211e-06 2.79698e-05 0.0138921)
(-1.20105e-05 2.35243e-05 0.0136455)
(-1.27636e-05 1.80376e-05 0.0132011)
(-1.24869e-05 1.24869e-05 0.0124894)
(1.80376e-05 1.27636e-05 0.0132011)
(2.00496e-05 2.00496e-05 0.0138676)
(1.86516e-05 2.6969e-05 0.0142122)
(1.30923e-05 3.23893e-05 0.0143759)
(4.70445e-06 3.53137e-05 0.0144396)
(-4.70445e-06 3.53137e-05 0.0144396)
(-1.30923e-05 3.23893e-05 0.0143759)
(-1.86516e-05 2.6969e-05 0.0142122)
(-2.00496e-05 2.00496e-05 0.0138676)
(-1.80376e-05 1.27636e-05 0.0132011)
(2.35243e-05 1.20105e-05 0.0136455)
(2.6969e-05 1.86516e-05 0.0142122)
(2.50494e-05 2.50494e-05 0.0144585)
(1.75656e-05 2.99756e-05 0.014553)
(6.30132e-06 3.26087e-05 0.0145827)
(-6.30131e-06 3.26087e-05 0.0145827)
(-1.75656e-05 2.99756e-05 0.014553)
(-2.50494e-05 2.50494e-05 0.0144585)
(-2.6969e-05 1.86516e-05 0.0142122)
(-2.35243e-05 1.20105e-05 0.0136455)
(2.79698e-05 8.3921e-06 0.0138921)
(3.23893e-05 1.30923e-05 0.0143759)
(2.99756e-05 1.75656e-05 0.014553)
(2.09637e-05 2.09637e-05 0.0146043)
(7.5066e-06 2.27637e-05 0.0146146)
(-7.5066e-06 2.27637e-05 0.0146146)
(-2.09637e-05 2.09637e-05 0.0146043)
(-2.99756e-05 1.75656e-05 0.014553)
(-3.23892e-05 1.30923e-05 0.0143759)
(-2.79698e-05 8.39211e-06 0.0138921)
(3.03602e-05 3.01871e-06 0.014)
(3.53137e-05 4.70445e-06 0.0144396)
(3.26087e-05 6.30132e-06 0.0145827)
(2.27637e-05 7.5066e-06 0.0146146)
(8.14208e-06 8.14208e-06 0.0146168)
(-8.14208e-06 8.14209e-06 0.0146168)
(-2.27637e-05 7.5066e-06 0.0146146)
(-3.26087e-05 6.30132e-06 0.0145827)
(-3.53137e-05 4.70445e-06 0.0144396)
(-3.03602e-05 3.01871e-06 0.014)
(3.03602e-05 -3.01871e-06 0.014)
(3.53137e-05 -4.70445e-06 0.0144396)
(3.26087e-05 -6.30132e-06 0.0145827)
(2.27637e-05 -7.5066e-06 0.0146146)
(8.14209e-06 -8.14208e-06 0.0146168)
(-8.14208e-06 -8.14208e-06 0.0146168)
(-2.27637e-05 -7.50659e-06 0.0146146)
(-3.26087e-05 -6.30131e-06 0.0145827)
(-3.53137e-05 -4.70445e-06 0.0144396)
(-3.03602e-05 -3.01871e-06 0.014)
(2.79698e-05 -8.39211e-06 0.0138921)
(3.23892e-05 -1.30923e-05 0.0143759)
(2.99756e-05 -1.75656e-05 0.014553)
(2.09637e-05 -2.09637e-05 0.0146043)
(7.5066e-06 -2.27637e-05 0.0146146)
(-7.50659e-06 -2.27637e-05 0.0146146)
(-2.09637e-05 -2.09637e-05 0.0146043)
(-2.99756e-05 -1.75656e-05 0.014553)
(-3.23892e-05 -1.30923e-05 0.0143759)
(-2.79698e-05 -8.3921e-06 0.0138921)
(2.35243e-05 -1.20105e-05 0.0136455)
(2.6969e-05 -1.86516e-05 0.0142122)
(2.50494e-05 -2.50494e-05 0.0144585)
(1.75656e-05 -2.99756e-05 0.014553)
(6.30132e-06 -3.26087e-05 0.0145827)
(-6.30131e-06 -3.26087e-05 0.0145827)
(-1.75656e-05 -2.99756e-05 0.014553)
(-2.50494e-05 -2.50494e-05 0.0144585)
(-2.6969e-05 -1.86516e-05 0.0142122)
(-2.35243e-05 -1.20105e-05 0.0136455)
(1.80376e-05 -1.27636e-05 0.0132011)
(2.00496e-05 -2.00496e-05 0.0138676)
(1.86516e-05 -2.6969e-05 0.0142122)
(1.30923e-05 -3.23893e-05 0.0143759)
(4.70445e-06 -3.53137e-05 0.0144396)
(-4.70445e-06 -3.53137e-05 0.0144396)
(-1.30923e-05 -3.23893e-05 0.0143759)
(-1.86516e-05 -2.6969e-05 0.0142122)
(-2.00496e-05 -2.00496e-05 0.0138676)
(-1.80376e-05 -1.27636e-05 0.0132011)
(1.24869e-05 -1.24869e-05 0.0124894)
(1.27636e-05 -1.80376e-05 0.0132011)
(1.20105e-05 -2.35243e-05 0.0136455)
(8.39211e-06 -2.79698e-05 0.0138921)
(3.01871e-06 -3.03602e-05 0.014)