/*--------------------------------*- C++ -*----------------------------------*\
| =========                 |                                                 |
| \\      /  F ield         | OpenFOAM: The Open Source CFD Toolbox           |
|  \\    /   O peration     | Version:  2412                                  |
|   \\  /    A nd           | Website:  www.openfoam.com                      |
|    \\/     M anipulation  |                                                 |
\*---------------------------------------------------------------------------*/
FoamFile
{
    version     2.0;
    format      ascii;
    arch        "LSB;label=32;scalar=64";
    class       surfaceScalarField;
    location    "10";
    object      phi;
}
// * * * * * * * * * * * * * * * * * * * * * * * * * * * * * * * * * * * * * //

dimensions      [0 3 -1 0 0 0 0];

oriented        oriented;

internalField   nonuniform List<scalar> 
43700
(
1.82484e-07
1.82484e-07
5.49998e-07
-2.22474e-07
-2.22474e-07
1.34733e-07
1.61366e-07
5.93502e-07
-1.97732e-07
8.91427e-08
1.47836e-07
6.24315e-07
-1.87131e-07
4.42133e-08
1.38892e-07
6.44092e-07
-1.78342e-07
5.39566e-17
1.34617e-07
6.5382e-07
-1.74295e-07
-4.42133e-08
1.34617e-07
6.5382e-07
-1.74295e-07
-8.91427e-08
1.38892e-07
6.44092e-07
-1.78342e-07
-1.34733e-07
1.47836e-07
6.24315e-07
-1.87131e-07
-1.82484e-07
1.61366e-07
5.93502e-07
-1.97732e-07
1.82484e-07
5.49998e-07
-2.22474e-07
-2.22474e-07
1.61366e-07
1.34733e-07
5.93502e-07
-1.97732e-07
1.19843e-07
1.19843e-07
6.28888e-07
7.89462e-08
1.08716e-07
6.53707e-07
3.9106e-08
1.01383e-07
6.69845e-07
9.95283e-17
9.78275e-08
6.77868e-07
-3.9106e-08
9.78275e-08
6.77868e-07
-7.89462e-08
1.01383e-07
6.69845e-07
-1.19843e-07
1.08716e-07
6.53707e-07
-1.61366e-07
1.19843e-07
6.28888e-07
1.34733e-07
5.93502e-07
-1.97732e-07
1.47836e-07
8.91427e-08
6.24315e-07
-1.87131e-07
1.08716e-07
7.89462e-08
6.53707e-07
7.12724e-08
7.12724e-08
6.74761e-07
3.52459e-08
6.62152e-08
6.88757e-07
-5.5681e-17
6.37483e-08
6.95803e-07
-3.52459e-08
6.37483e-08
6.95803e-07
-7.12724e-08
6.62152e-08
6.88757e-07
-1.08716e-07
7.12724e-08
6.74761e-07
-1.47836e-07
7.89462e-08
6.53707e-07
8.91427e-08
6.24315e-07
-1.87131e-07
1.38892e-07
4.42133e-08
6.44092e-07
-1.78342e-07
1.01383e-07
3.9106e-08
6.69845e-07
6.62152e-08
3.52459e-08
6.88757e-07
3.26903e-08
3.26903e-08
7.01553e-07
-4.76322e-16
3.1438e-08
7.08043e-07
-3.26903e-08
3.1438e-08
7.08043e-07
-6.62152e-08
3.26903e-08
7.01553e-07
-1.01383e-07
3.52459e-08
6.88757e-07
-1.38892e-07
3.9106e-08
6.69845e-07
4.42133e-08
6.44092e-07
-1.78342e-07
1.34617e-07
-2.04252e-16
6.5382e-07
-1.74295e-07
9.78275e-08
-7.64225e-17
6.77868e-07
6.37483e-08
-1.97292e-16
6.95803e-07
3.1438e-08
-4.26786e-16
7.08043e-07
-4.74957e-16
-4.86513e-16
7.14269e-07
-3.1438e-08
-2.94736e-16
7.14269e-07
-6.37483e-08
-6.20674e-17
7.08043e-07
-9.78275e-08
-8.11894e-17
6.95803e-07
-1.34617e-07
-1.18754e-16
6.77868e-07
-2.79892e-16
6.5382e-07
-1.74295e-07
1.34617e-07
-4.42133e-08
6.5382e-07
-1.74295e-07
9.78275e-08
-3.9106e-08
6.77868e-07
6.37483e-08
-3.52459e-08
6.95803e-07
3.1438e-08
-3.26903e-08
7.08043e-07
-3.09589e-16
-3.1438e-08
7.14269e-07
-3.1438e-08
-3.1438e-08
7.14269e-07
-6.37483e-08
-3.26903e-08
7.08043e-07
-9.78275e-08
-3.52459e-08
6.95803e-07
-1.34617e-07
-3.9106e-08
6.77868e-07
-4.42133e-08
6.5382e-07
-1.74295e-07
1.38892e-07
-8.91427e-08
6.44092e-07
-1.78342e-07
1.01383e-07
-7.89462e-08
6.69845e-07
6.62152e-08
-7.12724e-08
6.88757e-07
3.26903e-08
-6.62152e-08
7.01553e-07
-6.01896e-17
-6.37483e-08
7.08043e-07
-3.26903e-08
-6.37483e-08
7.08043e-07
-6.62152e-08
-6.62152e-08
7.01553e-07
-1.01383e-07
-7.12724e-08
6.88757e-07
-1.38892e-07
-7.89462e-08
6.69845e-07
-8.91427e-08
6.44092e-07
-1.78342e-07
1.47836e-07
-1.34733e-07
6.24315e-07
-1.87131e-07
1.08716e-07
-1.19843e-07
6.53707e-07
7.12724e-08
-1.08716e-07
6.74761e-07
3.52459e-08
-1.01383e-07
6.88757e-07
-1.6419e-16
-9.78275e-08
6.95803e-07
-3.52459e-08
-9.78275e-08
6.95803e-07
-7.12724e-08
-1.01383e-07
6.88757e-07
-1.08716e-07
-1.08716e-07
6.74761e-07
-1.47836e-07
-1.19843e-07
6.53707e-07
-1.34733e-07
6.24315e-07
-1.87131e-07
1.61366e-07
-1.82484e-07
5.93502e-07
-1.97732e-07
1.19843e-07
-1.61366e-07
6.28888e-07
7.89462e-08
-1.47836e-07
6.53707e-07
3.9106e-08
-1.38892e-07
6.69845e-07
-3.34444e-16
-1.34617e-07
6.77868e-07
-3.9106e-08
-1.34617e-07
6.77868e-07
-7.89462e-08
-1.38892e-07
6.69845e-07
-1.19843e-07
-1.47836e-07
6.53707e-07
-1.61366e-07
-1.61366e-07
6.28888e-07
-1.82484e-07
5.93502e-07
-1.97732e-07
1.82484e-07
5.49998e-07
-2.22474e-07
-2.22474e-07
1.34733e-07
5.93502e-07
-1.97732e-07
8.91427e-08
6.24315e-07
-1.87131e-07
4.42133e-08
6.44092e-07
-1.78342e-07
-2.75856e-16
6.5382e-07
-1.74295e-07
-4.42133e-08
6.5382e-07
-1.74295e-07
-8.91427e-08
6.44092e-07
-1.78342e-07
-1.34733e-07
6.24315e-07
-1.87131e-07
-1.82484e-07
5.93502e-07
-1.97732e-07
5.49998e-07
-2.22474e-07
-2.22474e-07
1.32139e-07
1.32139e-07
5.87182e-07
-1.50731e-07
-1.50731e-07
1.04129e-07
1.29752e-07
6.43237e-07
-1.51476e-07
7.11728e-08
1.25986e-07
6.81696e-07
-1.5041e-07
3.59359e-08
1.22351e-07
7.05418e-07
-1.4844e-07
2.87371e-16
1.20416e-07
7.16745e-07
-1.47405e-07
-3.59359e-08
1.20416e-07
7.16745e-07
-1.47405e-07
-7.11728e-08
1.22351e-07
7.05418e-07
-1.4844e-07
-1.04129e-07
1.25986e-07
6.81696e-07
-1.5041e-07
-1.32139e-07
1.29752e-07
6.43237e-07
-1.51476e-07
1.32139e-07
5.87182e-07
-1.50731e-07
-1.50731e-07
1.29752e-07
1.04129e-07
6.43237e-07
-1.51476e-07
1.00002e-07
1.00002e-07
6.88389e-07
6.72482e-08
9.52773e-08
7.17169e-07
3.3637e-08
9.14106e-08
7.34396e-07
2.17011e-16
8.93828e-08
7.42538e-07
-3.3637e-08
8.93828e-08
7.42538e-07
-6.72482e-08
9.14106e-08
7.34396e-07
-1.00002e-07
9.52773e-08
7.17169e-07
-1.29752e-07
1.00002e-07
6.88389e-07
1.04129e-07
6.43237e-07
-1.51476e-07
1.25986e-07
7.11728e-08
6.81696e-07
-1.5041e-07
9.52773e-08
6.72482e-08
7.17169e-07
6.32205e-08
6.32205e-08
7.38875e-07
3.14014e-08
6.01666e-08
7.5182e-07
-1.02872e-16
5.85946e-08
7.57993e-07
-3.14014e-08
5.85946e-08
7.57993e-07
-6.32205e-08
6.01666e-08
7.5182e-07
-9.52773e-08
6.32205e-08
7.38875e-07
-1.25986e-07
6.72482e-08
7.17169e-07
7.11728e-08
6.81696e-07
-1.5041e-07
1.22351e-07
3.59359e-08
7.05418e-07
-1.4844e-07
9.14106e-08
3.3637e-08
7.34396e-07
6.01666e-08
3.14014e-08
7.5182e-07
2.97621e-08
2.97621e-08
7.62362e-07
-4.0184e-16
2.8927e-08
7.67472e-07
-2.97621e-08
2.8927e-08
7.67472e-07
-6.01666e-08
2.97621e-08
7.62362e-07
-9.14106e-08
3.14014e-08
7.5182e-07
-1.22351e-07
3.3637e-08
7.34396e-07
3.59359e-08
7.05418e-07
-1.4844e-07
1.20416e-07
-2.99093e-16
7.16745e-07
-1.47405e-07
8.93828e-08
-1.78789e-16
7.42538e-07
5.85946e-08
-3.93767e-16
7.57993e-07
2.8927e-08
-5.58774e-16
7.67472e-07
-1.68368e-16
-2.91913e-16
7.72122e-07
-2.8927e-08
-1.17025e-16
7.72122e-07
-5.85946e-08
-2.2385e-16
7.67472e-07
-8.93828e-08
-3.11561e-16
7.57993e-07
-1.20416e-07
-2.51988e-16
7.42538e-07
-2.97644e-16
7.16745e-07
-1.47405e-07
1.20416e-07
-3.59359e-08
7.16745e-07
-1.47405e-07
8.93828e-08
-3.3637e-08
7.42538e-07
5.85946e-08
-3.14014e-08
7.57993e-07
2.8927e-08
-2.97621e-08
7.67472e-07
1.33335e-17
-2.8927e-08
7.72122e-07
-2.8927e-08
-2.8927e-08
7.72122e-07
-5.85946e-08
-2.97621e-08
7.67472e-07
-8.93828e-08
-3.14014e-08
7.57993e-07
-1.20416e-07
-3.3637e-08
7.42538e-07
-3.59359e-08
7.16745e-07
-1.47405e-07
1.22351e-07
-7.11728e-08
7.05418e-07
-1.4844e-07
9.14106e-08
-6.72482e-08
7.34396e-07
6.01666e-08
-6.32205e-08
7.5182e-07
2.97621e-08
-6.01666e-08
7.62362e-07
-1.51821e-17
-5.85946e-08
7.67472e-07
-2.97621e-08
-5.85946e-08
7.67472e-07
-6.01666e-08
-6.01666e-08
7.62362e-07
-9.14106e-08
-6.32205e-08
7.5182e-07
-1.22351e-07
-6.72482e-08
7.34396e-07
-7.11728e-08
7.05418e-07
-1.4844e-07
1.25986e-07
-1.04129e-07
6.81696e-07
-1.5041e-07
9.52773e-08
-1.00002e-07
7.17169e-07
6.32205e-08
-9.52773e-08
7.38875e-07
3.14014e-08
-9.14106e-08
7.5182e-07
-3.62835e-16
-8.93828e-08
7.57993e-07
-3.14014e-08
-8.93828e-08
7.57993e-07
-6.32205e-08
-9.14106e-08
7.5182e-07
-9.52773e-08
-9.52773e-08
7.38875e-07
-1.25986e-07
-1.00002e-07
7.17169e-07
-1.04129e-07
6.81696e-07
-1.5041e-07
1.29752e-07
-1.32139e-07
6.43237e-07
-1.51476e-07
1.00002e-07
-1.29752e-07
6.88389e-07
6.72482e-08
-1.25986e-07
7.17169e-07
3.3637e-08
-1.22351e-07
7.34396e-07
-4.39732e-16
-1.20416e-07
7.42538e-07
-3.3637e-08
-1.20416e-07
7.42538e-07
-6.72482e-08
-1.22351e-07
7.34396e-07
-1.00002e-07
-1.25986e-07
7.17169e-07
-1.29752e-07
-1.29752e-07
6.88389e-07
-1.32139e-07
6.43237e-07
-1.51476e-07
1.32139e-07
5.87182e-07
-1.50731e-07
-1.50731e-07
1.04129e-07
6.43237e-07
-1.51476e-07
7.11728e-08
6.81696e-07
-1.5041e-07
3.59359e-08
7.05418e-07
-1.4844e-07
-2.25334e-16
7.16745e-07
-1.47405e-07
-3.59359e-08
7.16745e-07
-1.47405e-07
-7.11728e-08
7.05418e-07
-1.4844e-07
-1.04129e-07
6.81696e-07
-1.5041e-07
-1.32139e-07
6.43237e-07
-1.51476e-07
5.87182e-07
-1.50731e-07
-1.50731e-07
1.10177e-07
1.10177e-07
5.97e-07
-1.15086e-07
-1.15086e-07
9.27463e-08
1.16897e-07
6.67888e-07
-1.24117e-07
6.61972e-08
1.19519e-07
7.17486e-07
-1.2876e-07
3.43043e-08
1.19848e-07
7.483e-07
-1.30838e-07
-1.57007e-16
1.19686e-07
7.62991e-07
-1.31628e-07
-3.43043e-08
1.19686e-07
7.62991e-07
-1.31628e-07
-6.61972e-08
1.19848e-07
7.483e-07
-1.30838e-07
-9.27463e-08
1.19519e-07
7.17486e-07
-1.2876e-07
-1.10177e-07
1.16897e-07
6.67888e-07
-1.24117e-07
1.10177e-07
5.97e-07
-1.15086e-07
-1.15086e-07
1.16897e-07
9.27463e-08
6.67888e-07
-1.24117e-07
9.64311e-08
9.64311e-08
7.29319e-07
6.78319e-08
9.69318e-08
7.68355e-07
3.48232e-08
9.60447e-08
7.91209e-07
-3.6893e-16
9.5298e-08
8.0175e-07
-3.48232e-08
9.5298e-08
8.0175e-07
-6.78319e-08
9.60447e-08
7.91209e-07
-9.64311e-08
9.69318e-08
7.68355e-07
-1.16897e-07
9.64311e-08
7.29319e-07
9.27463e-08
6.67888e-07
-1.24117e-07
1.19519e-07
6.61972e-08
7.17486e-07
-1.2876e-07
9.69318e-08
6.78319e-08
7.68355e-07
6.72826e-08
6.72826e-08
7.98173e-07
3.42734e-08
6.60809e-08
8.14793e-07
-5.60487e-16
6.5271e-08
8.22293e-07
-3.42734e-08
6.5271e-08
8.22293e-07
-6.72826e-08
6.60809e-08
8.14793e-07
-9.69318e-08
6.72826e-08
7.98173e-07
-1.19519e-07
6.78319e-08
7.68355e-07
6.61972e-08
7.17486e-07
-1.2876e-07
1.19848e-07
3.43043e-08
7.483e-07
-1.30838e-07
9.60447e-08
3.48232e-08
7.91209e-07
6.60809e-08
3.42734e-08
8.14793e-07
3.34959e-08
3.34959e-08
8.27532e-07
-4.7173e-16
3.30052e-08
8.33234e-07
-3.34959e-08
3.30052e-08
8.33234e-07
-6.60809e-08
3.34959e-08
8.27532e-07
-9.60447e-08
3.42734e-08
8.14793e-07
-1.19848e-07
3.48232e-08
7.91209e-07
3.43043e-08
7.483e-07
-1.30838e-07
1.19686e-07
-4.79051e-16
7.62991e-07
-1.31628e-07
9.5298e-08
-4.92415e-16
8.0175e-07
6.5271e-08
-8.83345e-16
8.22293e-07
3.30052e-08
-9.35144e-16
8.33234e-07
-7.58987e-17
-4.29919e-16
8.38133e-07
-3.30052e-08
-1.64163e-16
8.38133e-07
-6.5271e-08
-3.10718e-16
8.33234e-07
-9.5298e-08
-2.27163e-16
8.22293e-07
-1.19686e-07
-1.81529e-16
8.0175e-07
-2.93137e-16
7.62991e-07
-1.31628e-07
1.19686e-07
-3.43043e-08
7.62991e-07
-1.31628e-07
9.5298e-08
-3.48232e-08
8.0175e-07
6.5271e-08
-3.42734e-08
8.22293e-07
3.30052e-08
-3.34959e-08
8.33234e-07
1.1933e-16
-3.30052e-08
8.38133e-07
-3.30052e-08
-3.30052e-08
8.38133e-07
-6.5271e-08
-3.34959e-08
8.33234e-07
-9.5298e-08
-3.42734e-08
8.22293e-07
-1.19686e-07
-3.48232e-08
8.0175e-07
-3.43043e-08
7.62991e-07
-1.31628e-07
1.19848e-07
-6.61972e-08
7.483e-07
-1.30838e-07
9.60447e-08
-6.78319e-08
7.91209e-07
6.60809e-08
-6.72826e-08
8.14793e-07
3.34959e-08
-6.60809e-08
8.27532e-07
3.36836e-16
-6.5271e-08
8.33234e-07
-3.34959e-08
-6.5271e-08
8.33234e-07
-6.60809e-08
-6.60809e-08
8.27532e-07
-9.60447e-08
-6.72826e-08
8.14793e-07
-1.19848e-07
-6.78319e-08
7.91209e-07
-6.61972e-08
7.483e-07
-1.30838e-07
1.19519e-07
-9.27463e-08
7.17486e-07
-1.2876e-07
9.69318e-08
-9.64311e-08
7.68355e-07
6.72826e-08
-9.69318e-08
7.98173e-07
3.42734e-08
-9.60447e-08
8.14793e-07
1.36267e-16
-9.5298e-08
8.22293e-07
-3.42734e-08
-9.5298e-08
8.22293e-07
-6.72826e-08
-9.60447e-08
8.14793e-07
-9.69318e-08
-9.69318e-08
7.98173e-07
-1.19519e-07
-9.64311e-08
7.68355e-07
-9.27463e-08
7.17486e-07
-1.2876e-07
1.16897e-07
-1.10177e-07
6.67888e-07
-1.24117e-07
9.64311e-08
-1.16897e-07
7.29319e-07
6.78319e-08
-1.19519e-07
7.68355e-07
3.48232e-08
-1.19848e-07
7.91209e-07
-1.36087e-16
-1.19686e-07
8.0175e-07
-3.48232e-08
-1.19686e-07
8.0175e-07
-6.78319e-08
-1.19848e-07
7.91209e-07
-9.64311e-08
-1.19519e-07
7.68355e-07
-1.16897e-07
-1.16897e-07
7.29319e-07
-1.10177e-07
6.67888e-07
-1.24117e-07
1.10177e-07
5.97e-07
-1.15086e-07
-1.15086e-07
9.27463e-08
6.67888e-07
-1.24117e-07
6.61972e-08
7.17486e-07
-1.2876e-07
3.43043e-08
7.483e-07
-1.30838e-07
3.59263e-17
7.62991e-07
-1.31628e-07
-3.43043e-08
7.62991e-07
-1.31628e-07
-6.61972e-08
7.483e-07
-1.30838e-07
-9.27463e-08
7.17486e-07
-1.2876e-07
-1.10177e-07
6.67888e-07
-1.24117e-07
5.97e-07
-1.15086e-07
-1.15086e-07
6.45267e-08
6.45267e-08
5.95594e-07
-6.38234e-08
-6.38234e-08
5.69046e-08
7.33473e-08
6.75277e-07
-7.31141e-08
4.1928e-08
7.86449e-08
7.32662e-07
-7.88449e-08
2.21614e-08
8.13707e-08
7.68994e-07
-8.22982e-08
3.19089e-16
8.24862e-08
7.86482e-07
-8.38156e-08
-2.21614e-08
8.24862e-08
7.86482e-07
-8.38156e-08
-4.1928e-08
8.13707e-08
7.68994e-07
-8.22982e-08
-5.69046e-08
7.86449e-08
7.32662e-07
-7.88449e-08
-6.45267e-08
7.33473e-08
6.75277e-07
-7.31141e-08
6.45267e-08
5.95594e-07
-6.38234e-08
-6.38234e-08
7.33473e-08
5.69046e-08
6.75277e-07
-7.31141e-08
6.35413e-08
6.35413e-08
7.48931e-07
4.6213e-08
6.72037e-08
7.97125e-07
2.42024e-08
6.88249e-08
8.25765e-07
4.11099e-16
6.93947e-08
8.39044e-07
-2.42024e-08
6.93947e-08
8.39044e-07
-4.6213e-08
6.88249e-08
8.25765e-07
-6.35413e-08
6.72037e-08
7.97125e-07
-7.33473e-08
6.35413e-08
7.48931e-07
5.69046e-08
6.75277e-07
-7.31141e-08
7.86449e-08
4.1928e-08
7.32662e-07
-7.88449e-08
6.72037e-08
4.6213e-08
7.97125e-07
4.83051e-08
4.83051e-08
8.3597e-07
2.51092e-08
4.90739e-08
8.5774e-07
3.1196e-16
4.92772e-08
8.6752e-07
-2.51092e-08
4.92772e-08
8.6752e-07
-4.83051e-08
4.90739e-08
8.5774e-07
-6.72037e-08
4.83051e-08
8.3597e-07
-7.86449e-08
4.6213e-08
7.97125e-07
4.1928e-08
7.32662e-07
-7.88449e-08
8.13707e-08
2.21614e-08
7.68994e-07
-8.22982e-08
6.88249e-08
2.42024e-08
8.25765e-07
4.90739e-08
2.51092e-08
8.5774e-07
2.53898e-08
2.53898e-08
8.749e-07
2.15437e-16
2.54368e-08
8.82464e-07
-2.53898e-08
2.54368e-08
8.82464e-07
-4.90739e-08
2.53898e-08
8.749e-07
-6.88249e-08
2.51092e-08
8.5774e-07
-8.13707e-08
2.42024e-08
8.25765e-07
2.21614e-08
7.68994e-07
-8.22982e-08
8.24862e-08
-3.36082e-16
7.86482e-07
-8.38156e-08
6.93947e-08
-7.93083e-18
8.39044e-07
4.92772e-08
-1.53439e-16
8.6752e-07
2.54368e-08
-2.16038e-16
8.82464e-07
1.98128e-16
-7.41194e-17
8.89007e-07
-2.54368e-08
-1.05944e-16
8.89007e-07
-4.92772e-08
-5.17161e-16
8.82464e-07
-6.93947e-08
-3.7065e-16
8.6752e-07
-8.24862e-08
-4.43256e-16
8.39044e-07
-3.60209e-16
7.86482e-07
-8.38156e-08
8.24862e-08
-2.21614e-08
7.86482e-07
-8.38156e-08
6.93947e-08
-2.42024e-08
8.39044e-07
4.92772e-08
-2.51092e-08
8.6752e-07
2.54368e-08
-2.53898e-08
8.82464e-07
8.63247e-17
-2.54368e-08
8.89007e-07
-2.54368e-08
-2.54368e-08
8.89007e-07
-4.92772e-08
-2.53898e-08
8.82464e-07
-6.93947e-08
-2.51092e-08
8.6752e-07
-8.24862e-08
-2.42024e-08
8.39044e-07
-2.21614e-08
7.86482e-07
-8.38156e-08
8.13707e-08
-4.1928e-08
7.68994e-07
-8.22982e-08
6.88249e-08
-4.6213e-08
8.25765e-07
4.90739e-08
-4.83051e-08
8.5774e-07
2.53898e-08
-4.90739e-08
8.749e-07
8.43524e-17
-4.92772e-08
8.82464e-07
-2.53898e-08
-4.92772e-08
8.82464e-07
-4.90739e-08
-4.90739e-08
8.749e-07
-6.88249e-08
-4.83051e-08
8.5774e-07
-8.13707e-08
-4.6213e-08
8.25765e-07
-4.1928e-08
7.68994e-07
-8.22982e-08
7.86449e-08
-5.69046e-08
7.32662e-07
-7.88449e-08
6.72037e-08
-6.35413e-08
7.97125e-07
4.83051e-08
-6.72037e-08
8.3597e-07
2.51092e-08
-6.88249e-08
8.5774e-07
-2.59918e-16
-6.93947e-08
8.6752e-07
-2.51092e-08
-6.93947e-08
8.6752e-07
-4.83051e-08
-6.88249e-08
8.5774e-07
-6.72037e-08
-6.72037e-08
8.3597e-07
-7.86449e-08
-6.35413e-08
7.97125e-07
-5.69046e-08
7.32662e-07
-7.88449e-08
7.33473e-08
-6.45267e-08
6.75277e-07
-7.31141e-08
6.35413e-08
-7.33473e-08
7.48931e-07
4.6213e-08
-7.86449e-08
7.97125e-07
2.42024e-08
-8.13707e-08
8.25765e-07
-6.38605e-16
-8.24862e-08
8.39044e-07
-2.42024e-08
-8.24862e-08
8.39044e-07
-4.6213e-08
-8.13707e-08
8.25765e-07
-6.35413e-08
-7.86449e-08
7.97125e-07
-7.33473e-08
-7.33473e-08
7.48931e-07
-6.45267e-08
6.75277e-07
-7.31141e-08
6.45267e-08
5.95594e-07
-6.38234e-08
-6.38234e-08
5.69046e-08
6.75277e-07
-7.31141e-08
4.1928e-08
7.32662e-07
-7.88449e-08
2.21614e-08
7.68994e-07
-8.22982e-08
-1.54998e-16
7.86482e-07
-8.38156e-08
-2.21614e-08
7.86482e-07
-8.38156e-08
-4.1928e-08
7.68994e-07
-8.22982e-08
-5.69046e-08
7.32662e-07
-7.88449e-08
-6.45267e-08
6.75277e-07
-7.31141e-08
5.95594e-07
-6.38234e-08
-6.38234e-08
3.86052e-08
3.86052e-08
5.9192e-07
-3.67682e-08
-3.67682e-08
3.48935e-08
4.52017e-08
6.76677e-07
-4.28893e-08
2.62208e-08
4.97317e-08
7.38894e-07
-4.7291e-08
1.40318e-08
5.2419e-08
7.78866e-07
-5.01021e-08
3.21158e-16
5.36273e-08
7.98273e-07
-5.13864e-08
-1.40318e-08
5.36273e-08
7.98273e-07
-5.13864e-08
-2.62208e-08
5.2419e-08
7.78866e-07
-5.01021e-08
-3.48935e-08
4.97317e-08
7.38894e-07
-4.7291e-08
-3.86052e-08
4.52017e-08
6.76677e-07
-4.28893e-08
3.86052e-08
5.9192e-07
-3.67682e-08
-3.67682e-08
4.52017e-08
3.48935e-08
6.76677e-07
-4.28893e-08
4.05204e-08
4.05204e-08
7.58294e-07
3.01851e-08
4.41888e-08
8.13003e-07
1.60421e-08
4.6226e-08
8.46101e-07
3.99058e-16
4.71065e-08
8.61607e-07
-1.60421e-08
4.71065e-08
8.61607e-07
-3.01851e-08
4.6226e-08
8.46101e-07
-4.05204e-08
4.41888e-08
8.13003e-07
-4.52017e-08
4.05204e-08
7.58294e-07
3.48935e-08
6.76677e-07
-4.28893e-08
4.97317e-08
2.62208e-08
7.38894e-07
-4.7291e-08
4.41888e-08
3.01851e-08
8.13003e-07
3.26426e-08
3.26426e-08
8.59063e-07
1.72479e-08
3.39374e-08
8.85423e-07
2.2659e-16
3.44736e-08
8.97401e-07
-1.72479e-08
3.44736e-08
8.97401e-07
-3.26426e-08
3.39374e-08
8.85423e-07
-4.41888e-08
3.26426e-08
8.59063e-07
-4.97317e-08
3.01851e-08
8.13003e-07
2.62208e-08
7.38894e-07
-4.7291e-08
5.2419e-08
1.40318e-08
7.78866e-07
-5.01021e-08
4.6226e-08
1.60421e-08
8.46101e-07
3.39374e-08
1.72479e-08
8.85423e-07
1.78653e-08
1.78653e-08
9.07044e-07
2.29859e-16
1.81142e-08
9.16689e-07
-1.78653e-08
1.81142e-08
9.16689e-07
-3.39374e-08
1.78653e-08
9.07044e-07
-4.6226e-08
1.72479e-08
8.85423e-07
-5.2419e-08
1.60421e-08
8.46101e-07
1.40318e-08
7.78866e-07
-5.01021e-08
5.36273e-08
1.04762e-16
7.98273e-07
-5.13864e-08
4.71065e-08
2.87985e-16
8.61607e-07
3.44736e-08
-4.69713e-18
8.97401e-07
1.81142e-08
-7.84957e-17
9.16689e-07
4.09681e-16
1.3804e-16
9.25235e-07
-1.81142e-08
4.31843e-16
9.25235e-07
-3.44736e-08
1.84113e-16
9.16689e-07
-4.71065e-08
1.37907e-16
8.97401e-07
-5.36273e-08
-2.07809e-16
8.61607e-07
-2.06325e-16
7.98273e-07
-5.13864e-08
5.36273e-08
-1.40318e-08
7.98273e-07
-5.13864e-08
4.71065e-08
-1.60421e-08
8.61607e-07
3.44736e-08
-1.72479e-08
8.97401e-07
1.81142e-08
-1.78653e-08
9.16689e-07
5.79271e-16
-1.81142e-08
9.25235e-07
-1.81142e-08
-1.81141e-08
9.25235e-07
-3.44736e-08
-1.78653e-08
9.16689e-07
-4.71065e-08
-1.72479e-08
8.97401e-07
-5.36273e-08
-1.60421e-08
8.61607e-07
-1.40318e-08
7.98273e-07
-5.13864e-08
5.2419e-08
-2.62208e-08
7.78866e-07
-5.01021e-08
4.6226e-08
-3.01851e-08
8.46101e-07
3.39374e-08
-3.26426e-08
8.85423e-07
1.78653e-08
-3.39374e-08
9.07044e-07
7.57303e-16
-3.44736e-08
9.16689e-07
-1.78653e-08
-3.44736e-08
9.16689e-07
-3.39374e-08
-3.39374e-08
9.07044e-07
-4.6226e-08
-3.26426e-08
8.85423e-07
-5.2419e-08
-3.01851e-08
8.46101e-07
-2.62208e-08
7.78866e-07
-5.01021e-08
4.97317e-08
-3.48935e-08
7.38894e-07
-4.7291e-08
4.41888e-08
-4.05204e-08
8.13003e-07
3.26426e-08
-4.41888e-08
8.59063e-07
1.72479e-08
-4.6226e-08
8.85423e-07
3.94629e-16
-4.71065e-08
8.97401e-07
-1.72479e-08
-4.71065e-08
8.97401e-07
-3.26426e-08
-4.6226e-08
8.85423e-07
-4.41888e-08
-4.41888e-08
8.59063e-07
-4.97317e-08
-4.05204e-08
8.13003e-07
-3.48935e-08
7.38894e-07
-4.7291e-08
4.52017e-08
-3.86052e-08
6.76677e-07
-4.28893e-08
4.05204e-08
-4.52017e-08
7.58294e-07
3.01851e-08
-4.97317e-08
8.13003e-07
1.60421e-08
-5.2419e-08
8.46101e-07
-2.92315e-16
-5.36273e-08
8.61607e-07
-1.60421e-08
-5.36273e-08
8.61607e-07
-3.01851e-08
-5.2419e-08
8.46101e-07
-4.05204e-08
-4.97317e-08
8.13003e-07
-4.52017e-08
-4.52017e-08
7.58294e-07
-3.86052e-08
6.76677e-07
-4.28893e-08
3.86052e-08
5.9192e-07
-3.67682e-08
-3.67682e-08
3.48935e-08
6.76677e-07
-4.28893e-08
2.62208e-08
7.38894e-07
-4.7291e-08
1.40318e-08
7.78866e-07
-5.01021e-08
8.05532e-17
7.98273e-07
-5.13864e-08
-1.40318e-08
7.98273e-07
-5.13864e-08
-2.62208e-08
7.78866e-07
-5.01021e-08
-3.48935e-08
7.38894e-07
-4.7291e-08
-3.86052e-08
6.76677e-07
-4.28893e-08
5.9192e-07
-3.67682e-08
-3.67682e-08
1.93629e-08
1.93629e-08
5.88435e-07
-1.76206e-08
-1.76206e-08
1.81536e-08
2.37813e-08
6.75371e-07
-2.12663e-08
1.40215e-08
2.71628e-08
7.4002e-07
-2.41564e-08
7.63096e-09
2.9377e-08
7.82004e-07
-2.61243e-08
6.14019e-16
3.04411e-08
8.0253e-07
-2.7067e-08
-7.63096e-09
3.04411e-08
8.0253e-07
-2.7067e-08
-1.40215e-08
2.9377e-08
7.82004e-07
-2.61243e-08
-1.81536e-08
2.71628e-08
7.4002e-07
-2.41564e-08
-1.93629e-08
2.37813e-08
6.75371e-07
-2.12663e-08
1.93629e-08
5.88435e-07
-1.76206e-08
-1.76206e-08
2.37813e-08
1.81536e-08
6.75371e-07
-2.12663e-08
2.23136e-08
2.23136e-08
7.61229e-07
1.71722e-08
2.54043e-08
8.19903e-07
9.30778e-09
2.73587e-08
8.55984e-07
1.00132e-15
2.82857e-08
8.7307e-07
-9.30778e-09
2.82857e-08
8.7307e-07
-1.71722e-08
2.73587e-08
8.55984e-07
-2.23136e-08
2.54043e-08
8.19903e-07
-2.37813e-08
2.23136e-08
7.61229e-07
1.81536e-08
6.75371e-07
-2.12663e-08
2.71628e-08
1.40215e-08
7.4002e-07
-2.41564e-08
2.54043e-08
1.71722e-08
8.19903e-07
1.94557e-08
1.94557e-08
8.7096e-07
1.05035e-08
2.08648e-08
9.00869e-07
8.54351e-16
2.15228e-08
9.14667e-07
-1.05035e-08
2.15228e-08
9.14667e-07
-1.94557e-08
2.08648e-08
9.00869e-07
-2.54043e-08
1.94557e-08
8.7096e-07
-2.71628e-08
1.71722e-08
8.19903e-07
1.40215e-08
7.4002e-07
-2.41564e-08
2.9377e-08
7.63096e-09
7.82004e-07
-2.61243e-08
2.73587e-08
9.30778e-09
8.55984e-07
2.08648e-08
1.05035e-08
9.00869e-07
1.12326e-08
1.12326e-08
9.26308e-07
7.53934e-16
1.15701e-08
9.37875e-07
-1.12326e-08
1.15701e-08
9.37875e-07
-2.08648e-08
1.12326e-08
9.26308e-07
-2.73587e-08
1.05035e-08
9.00869e-07
-2.9377e-08
9.30778e-09
8.55984e-07
7.63096e-09
7.82004e-07
-2.61243e-08
3.04411e-08
1.6898e-16
8.0253e-07
-2.7067e-08
2.82857e-08
4.62097e-16
8.7307e-07
2.15228e-08
3.64051e-16
9.14667e-07
1.15701e-08
3.23291e-16
9.37875e-07
7.2592e-16
3.84395e-16
9.48375e-07
-1.15701e-08
4.57657e-16
9.48375e-07
-2.15228e-08
1.56611e-16
9.37875e-07
-2.82857e-08
3.00123e-17
9.14667e-07
-3.04411e-08
-2.22521e-16
8.7307e-07
-6.41184e-17
8.0253e-07
-2.7067e-08
3.04411e-08
-7.63096e-09
8.0253e-07
-2.7067e-08
2.82857e-08
-9.30778e-09
8.7307e-07
2.15228e-08
-1.05035e-08
9.14667e-07
1.15701e-08
-1.12326e-08
9.37875e-07
6.79435e-16
-1.15701e-08
9.48375e-07
-1.15701e-08
-1.15701e-08
9.48375e-07
-2.15228e-08
-1.12326e-08
9.37875e-07
-2.82857e-08
-1.05035e-08
9.14667e-07
-3.04411e-08
-9.30778e-09
8.7307e-07
-7.63096e-09
8.0253e-07
-2.7067e-08
2.9377e-08
-1.40215e-08
7.82004e-07
-2.61243e-08
2.73587e-08
-1.71722e-08
8.55984e-07
2.08648e-08
-1.94557e-08
9.00869e-07
1.12326e-08
-2.08648e-08
9.26308e-07
7.42622e-16
-2.15228e-08
9.37875e-07
-1.12326e-08
-2.15228e-08
9.37875e-07
-2.08648e-08
-2.08648e-08
9.26308e-07
-2.73587e-08
-1.94557e-08
9.00869e-07
-2.9377e-08
-1.71722e-08
8.55984e-07
-1.40215e-08
7.82004e-07
-2.61243e-08
2.71628e-08
-1.81536e-08
7.4002e-07
-2.41564e-08
2.54043e-08
-2.23136e-08
8.19903e-07
1.94557e-08
-2.54043e-08
8.7096e-07
1.05035e-08
-2.73587e-08
9.00869e-07
5.45879e-16
-2.82857e-08
9.14667e-07
-1.05035e-08
-2.82857e-08
9.14667e-07
-1.94557e-08
-2.73587e-08
9.00869e-07
-2.54043e-08
-2.54043e-08
8.7096e-07
-2.71628e-08
-2.23136e-08
8.19903e-07
-1.81536e-08
7.4002e-07
-2.41564e-08
2.37813e-08
-1.93629e-08
6.75371e-07
-2.12663e-08
2.23136e-08
-2.37813e-08
7.61229e-07
1.71722e-08
-2.71628e-08
8.19903e-07
9.30778e-09
-2.9377e-08
8.55984e-07
-6.19881e-17
-3.04411e-08
8.7307e-07
-9.30778e-09
-3.04411e-08
8.7307e-07
-1.71722e-08
-2.9377e-08
8.55984e-07
-2.23136e-08
-2.71628e-08
8.19903e-07
-2.37813e-08
-2.37813e-08
7.61229e-07
-1.93629e-08
6.75371e-07
-2.12663e-08
1.93629e-08
5.88435e-07
-1.76206e-08
-1.76206e-08
1.81536e-08
6.75371e-07
-2.12663e-08
1.40215e-08
7.4002e-07
-2.41564e-08
7.63096e-09
7.82004e-07
-2.61243e-08
7.26884e-17
8.0253e-07
-2.7067e-08
-7.63096e-09
8.0253e-07
-2.7067e-08
-1.40215e-08
7.82004e-07
-2.61243e-08
-1.81536e-08
7.4002e-07
-2.41564e-08
-1.93629e-08
6.75371e-07
-2.12663e-08
5.88435e-07
-1.76206e-08
-1.76206e-08
8.51652e-09
8.51652e-09
5.86221e-07
-7.40926e-09
-7.40926e-09
8.27851e-09
1.09578e-08
6.73859e-07
-9.20799e-09
6.57242e-09
1.30061e-08
7.39489e-07
-1.07686e-08
3.63767e-09
1.44486e-08
7.82379e-07
-1.18895e-08
5.01477e-16
1.51746e-08
8.0344e-07
-1.24475e-08
-3.63767e-09
1.51746e-08
8.0344e-07
-1.24475e-08
-6.57242e-09
1.44486e-08
7.82379e-07
-1.18895e-08
-8.27851e-09
1.30061e-08
7.39489e-07
-1.07686e-08
-8.51652e-09
1.09578e-08
6.73859e-07
-9.20799e-09
8.51652e-09
5.86221e-07
-7.40926e-09
-7.40926e-09
1.09578e-08
8.27851e-09
6.73859e-07
-9.20799e-09
1.07902e-08
1.07902e-08
7.61565e-07
8.59606e-09
1.28541e-08
8.22249e-07
4.7568e-09
1.4274e-08
8.59998e-07
6.36283e-16
1.49839e-08
8.78017e-07
-4.7568e-09
1.49839e-08
8.78017e-07
-8.59605e-09
1.4274e-08
8.59998e-07
-1.07902e-08
1.28541e-08
8.22249e-07
-1.09578e-08
1.07902e-08
7.61565e-07
8.27851e-09
6.73859e-07
-9.20799e-09
1.30061e-08
6.57242e-09
7.39489e-07
-1.07686e-08
1.28541e-08
8.59606e-09
8.22249e-07
1.02312e-08
1.02312e-08
8.76206e-07
5.65005e-09
1.13362e-08
9.08388e-07
3.86821e-16
1.18826e-08
9.23418e-07
-5.65005e-09
1.18826e-08
9.23418e-07
-1.02312e-08
1.13362e-08
9.08388e-07
-1.28541e-08
1.02312e-08
8.76206e-07
-1.30061e-08
8.59606e-09
8.22249e-07
6.57242e-09
7.39489e-07
-1.07686e-08
1.44486e-08
3.63767e-09
7.82379e-07
-1.18895e-08
1.4274e-08
4.7568e-09
8.59998e-07
1.13362e-08
5.65005e-09
9.08388e-07
6.24775e-09
6.24775e-09
9.36485e-07
4.24983e-16
6.54114e-09
9.49464e-07
-6.24775e-09
6.54114e-09
9.49464e-07
-1.13362e-08
6.24775e-09
9.36485e-07
-1.4274e-08
5.65005e-09
9.08388e-07
-1.44486e-08
4.7568e-09
8.59998e-07
3.63767e-09
7.82379e-07
-1.18895e-08
1.51746e-08
1.93846e-16
8.0344e-07
-1.24475e-08
1.49839e-08
2.70693e-16
8.78017e-07
1.18826e-08
1.88154e-16
9.23418e-07
6.54114e-09
3.04572e-16
9.49464e-07
6.42462e-16
5.8852e-16
9.61457e-07
-6.54114e-09
8.55533e-16
9.61457e-07
-1.18826e-08
8.62059e-16
9.49464e-07
-1.49839e-08
5.5403e-16
9.23418e-07
-1.51746e-08
8.89513e-17
8.78017e-07
-4.3834e-17
8.0344e-07
-1.24475e-08
1.51746e-08
-3.63767e-09
8.0344e-07
-1.24475e-08
1.49839e-08
-4.7568e-09
8.78017e-07
1.18826e-08
-5.65005e-09
9.23418e-07
6.54114e-09
-6.24775e-09
9.49464e-07
8.60187e-16
-6.54114e-09
9.61457e-07
-6.54114e-09
-6.54114e-09
9.61457e-07
-1.18826e-08
-6.24775e-09
9.49464e-07
-1.49839e-08
-5.65005e-09
9.23418e-07
-1.51746e-08
-4.7568e-09
8.78017e-07
-3.63767e-09
8.0344e-07
-1.24475e-08
1.44486e-08
-6.57242e-09
7.82379e-07
-1.18895e-08
1.4274e-08
-8.59606e-09
8.59998e-07
1.13362e-08
-1.02312e-08
9.08388e-07
6.24775e-09
-1.13362e-08
9.36485e-07
9.23407e-16
-1.18826e-08
9.49464e-07
-6.24775e-09
-1.18826e-08
9.49464e-07
-1.13362e-08
-1.13362e-08
9.36485e-07
-1.4274e-08
-1.02312e-08
9.08388e-07
-1.44486e-08
-8.59606e-09
8.59998e-07
-6.57242e-09
7.82379e-07
-1.18895e-08
1.30061e-08
-8.27851e-09
7.39489e-07
-1.07686e-08
1.28541e-08
-1.07902e-08
8.22249e-07
1.02312e-08
-1.28541e-08
8.76206e-07
5.65005e-09
-1.4274e-08
9.08388e-07
6.42233e-16
-1.49839e-08
9.23418e-07
-5.65005e-09
-1.49839e-08
9.23418e-07
-1.02312e-08
-1.4274e-08
9.08388e-07
-1.28541e-08
-1.28541e-08
8.76206e-07
-1.30061e-08
-1.07902e-08
8.22249e-07
-8.27851e-09
7.39489e-07
-1.07686e-08
1.09578e-08
-8.51652e-09
6.73859e-07
-9.20799e-09
1.07902e-08
-1.09578e-08
7.61565e-07
8.59606e-09
-1.30061e-08
8.22249e-07
4.7568e-09
-1.44486e-08
8.59998e-07
1.00683e-16
-1.51746e-08
8.78017e-07
-4.7568e-09
-1.51746e-08
8.78017e-07
-8.59606e-09
-1.44486e-08
8.59998e-07
-1.07902e-08
-1.30061e-08
8.22249e-07
-1.09578e-08
-1.09578e-08
7.61565e-07
-8.51652e-09
6.73859e-07
-9.20799e-09
8.51652e-09
5.86221e-07
-7.40926e-09
-7.40926e-09
8.27851e-09
6.73859e-07
-9.20799e-09
6.57242e-09
7.39489e-07
-1.07686e-08
3.63767e-09
7.82379e-07
-1.18895e-08
4.44142e-17
8.0344e-07
-1.24475e-08
-3.63767e-09
8.0344e-07
-1.24475e-08
-6.57242e-09
7.82379e-07
-1.18895e-08
-8.27851e-09
7.39489e-07
-1.07686e-08
-8.51652e-09
6.73859e-07
-9.20799e-09
5.86221e-07
-7.40926e-09
-7.40926e-09
3.31837e-09
3.31837e-09
5.85024e-07
-2.71995e-09
-2.71995e-09
3.37413e-09
4.51424e-09
6.72803e-07
-3.51391e-09
2.76814e-09
5.59459e-09
7.38759e-07
-4.25892e-09
1.56225e-09
6.39778e-09
7.82005e-07
-4.81712e-09
4.78167e-16
6.81591e-09
8.03291e-07
-5.10418e-09
-1.56225e-09
6.81591e-09
8.03291e-07
-5.10418e-09
-2.76814e-09
6.39778e-09
7.82005e-07
-4.81712e-09
-3.37413e-09
5.59459e-09
7.38759e-07
-4.25892e-09
-3.31836e-09
4.51424e-09
6.72803e-07
-3.51391e-09
3.31836e-09
5.85024e-07
-2.71995e-09
-2.71995e-09
4.51424e-09
3.37413e-09
6.72803e-07
-3.51391e-09
4.70174e-09
4.70174e-09
7.6119e-07
3.89256e-09
5.87892e-09
8.22774e-07
2.20272e-09
6.73726e-09
8.61348e-07
7.06958e-16
7.18155e-09
8.79854e-07
-2.20272e-09
7.18155e-09
8.79854e-07
-3.89256e-09
6.73726e-09
8.61348e-07
-4.70174e-09
5.87891e-09
8.22774e-07
-4.51424e-09
4.70174e-09
7.6119e-07
3.37413e-09
6.72803e-07
-3.51391e-09
5.59459e-09
2.76814e-09
7.38759e-07
-4.25892e-09
5.87892e-09
3.89256e-09
8.22774e-07
4.87519e-09
4.87519e-09
8.78213e-07
2.75587e-09
5.57974e-09
9.11665e-07
5.42409e-16
5.9404e-09
9.27415e-07
-2.75587e-09
5.9404e-09
9.27415e-07
-4.87519e-09
5.57974e-09
9.11665e-07
-5.87891e-09
4.87519e-09
8.78213e-07
-5.59459e-09
3.89256e-09
8.22774e-07
2.76814e-09
7.38759e-07
-4.25892e-09
6.39778e-09
1.56225e-09
7.82005e-07
-4.81712e-09
6.73726e-09
2.20272e-09
8.61348e-07
5.57975e-09
2.75587e-09
9.11665e-07
3.14841e-09
3.14841e-09
9.41348e-07
5.76497e-16
3.34775e-09
9.55205e-07
-3.14841e-09
3.34775e-09
9.55205e-07
-5.57974e-09
3.14841e-09
9.41348e-07
-6.73726e-09
2.75587e-09