/*--------------------------------*- C++ -*----------------------------------*\
| =========                 |                                                 |
| \\      /  F ield         | OpenFOAM: The Open Source CFD Toolbox           |
|  \\    /   O peration     | Version:  2412                                  |
|   \\  /    A nd           | Website:  www.openfoam.com                      |
|    \\/     M anipulation  |                                                 |
\*---------------------------------------------------------------------------*/
FoamFile
{
    version     2.0;
    format      ascii;
    arch        "LSB;label=32;scalar=64";
    class       volVectorField;
    location    "10";
    object      U;
}
// * * * * * * * * * * * * * * * * * * * * * * * * * * * * * * * * * * * * * //

dimensions      [0 1 -1 0 0 0 0];

internalField   nonuniform List<vector> 
15000
(
(0.00119713 0.00119713 0.0103754)
(0.000883621 0.00111699 0.010323)
(0.000601658 0.00108885 0.0102801)
(0.000353166 0.00106187 0.0102526)
(0.000115988 0.00104954 0.01024)
(-0.000115988 0.00104954 0.01024)
(-0.000353166 0.00106187 0.0102526)
(-0.000601658 0.00108885 0.0102801)
(-0.000883621 0.00111699 0.010323)
(-0.00119713 0.00119713 0.0103754)
(0.00111699 0.000883621 0.010323)
(0.000830571 0.000830571 0.0102575)
(0.000568496 0.000793104 0.0102163)
(0.000331787 0.000767059 0.0101949)
(0.000108916 0.000754631 0.0101861)
(-0.000108916 0.000754631 0.0101861)
(-0.000331787 0.000767059 0.0101949)
(-0.000568496 0.000793104 0.0102163)
(-0.000830571 0.000830571 0.0102575)
(-0.00111699 0.000883621 0.010323)
(0.00108885 0.000601658 0.0102801)
(0.000793104 0.000568496 0.0102163)
(0.000539525 0.000539525 0.0101839)
(0.000313491 0.000519055 0.0101693)
(0.000102764 0.000508939 0.0101637)
(-0.000102764 0.000508939 0.0101637)
(-0.000313491 0.000519055 0.0101693)
(-0.000539525 0.000539525 0.0101839)
(-0.000793104 0.000568496 0.0102163)
(-0.00108885 0.000601658 0.0102801)
(0.00106187 0.000353166 0.0102526)
(0.000767059 0.000331787 0.0101949)
(0.000519055 0.000313491 0.0101693)
(0.000300536 0.000300536 0.0101585)
(9.8379e-05 0.000294046 0.0101544)
(-9.8379e-05 0.000294046 0.0101544)
(-0.000300536 0.000300536 0.0101585)
(-0.000519055 0.000313491 0.0101693)
(-0.000767059 0.000331787 0.0101949)
(-0.00106187 0.000353166 0.0102526)
(0.00104954 0.000115988 0.01024)
(0.000754631 0.000108916 0.0101861)
(0.000508939 0.000102764 0.0101637)
(0.000294046 9.8379e-05 0.0101544)
(9.61695e-05 9.61695e-05 0.0101506)
(-9.61695e-05 9.61695e-05 0.0101506)
(-0.000294046 9.8379e-05 0.0101544)
(-0.000508939 0.000102764 0.0101637)
(-0.000754631 0.000108916 0.0101861)
(-0.00104954 0.000115988 0.01024)
(0.00104954 -0.000115988 0.01024)
(0.000754631 -0.000108916 0.0101861)
(0.000508939 -0.000102764 0.0101637)
(0.000294046 -9.8379e-05 0.0101544)
(9.61695e-05 -9.61695e-05 0.0101506)
(-9.61695e-05 -9.61695e-05 0.0101506)
(-0.000294046 -9.8379e-05 0.0101544)
(-0.000508939 -0.000102764 0.0101637)
(-0.000754631 -0.000108916 0.0101861)
(-0.00104954 -0.000115988 0.01024)
(0.00106187 -0.000353166 0.0102526)
(0.000767059 -0.000331787 0.0101949)
(0.000519055 -0.000313491 0.0101693)
(0.000300536 -0.000300536 0.0101585)
(9.8379e-05 -0.000294046 0.0101544)
(-9.8379e-05 -0.000294046 0.0101544)
(-0.000300536 -0.000300536 0.0101585)
(-0.000519055 -0.000313491 0.0101693)
(-0.000767059 -0.000331787 0.0101949)
(-0.00106187 -0.000353166 0.0102526)
(0.00108885 -0.000601658 0.0102801)
(0.000793104 -0.000568496 0.0102163)
(0.000539525 -0.000539525 0.0101839)
(0.000313491 -0.000519055 0.0101693)
(0.000102764 -0.000508939 0.0101637)
(-0.000102764 -0.000508939 0.0101637)
(-0.000313491 -0.000519055 0.0101693)
(-0.000539525 -0.000539525 0.0101839)
(-0.000793104 -0.000568496 0.0102163)
(-0.00108885 -0.000601658 0.0102801)
(0.00111699 -0.000883621 0.010323)
(0.000830571 -0.000830571 0.0102575)
(0.000568496 -0.000793104 0.0102163)
(0.000331787 -0.000767059 0.0101949)
(0.000108916 -0.000754631 0.0101861)
(-0.000108916 -0.000754631 0.0101861)
(-0.000331787 -0.000767059 0.0101949)
(-0.000568496 -0.000793104 0.0102163)
(-0.000830571 -0.000830571 0.0102575)
(-0.00111699 -0.000883621 0.010323)
(0.00119713 -0.00119713 0.0103754)
(0.000883621 -0.00111699 0.010323)
(0.000601658 -0.00108885 0.0102801)
(0.000353166 -0.00106187 0.0102526)
(0.000115988 -0.00104954 0.01024)
(-0.000115988 -0.00104954 0.01024)
(-0.000353166 -0.00106187 0.0102526)
(-0.000601658 -0.00108885 0.0102801)
(-0.000883621 -0.00111699 0.010323)
(-0.00119713 -0.00119713 0.0103754)
(0.00082911 0.00082911 0.0127001)
(0.000657684 0.000878257 0.0126629)
(0.00046898 0.000906532 0.0125621)
(0.000280709 0.000917061 0.0124663)
(9.29728e-05 0.000921516 0.0124123)
(-9.29728e-05 0.000921516 0.0124123)
(-0.000280709 0.000917061 0.0124663)
(-0.00046898 0.000906532 0.0125621)
(-0.000657684 0.000878257 0.0126629)
(-0.00082911 0.00082911 0.0127001)
(0.000878257 0.000657684 0.0126629)
(0.00068243 0.00068243 0.0124872)
(0.000478428 0.000688375 0.0122926)
(0.000282044 0.000685603 0.0121476)
(9.2931e-05 0.000683175 0.0120732)
(-9.2931e-05 0.000683175 0.0120732)
(-0.000282044 0.000685603 0.0121476)
(-0.000478428 0.000688375 0.0122926)
(-0.00068243 0.00068243 0.0124872)
(-0.000878257 0.000657684 0.0126629)
(0.000906532 0.00046898 0.0125621)
(0.000688375 0.000478428 0.0122926)
(0.000475297 0.000475297 0.0120528)
(0.000277296 0.000468829 0.0118904)
(9.0993e-05 0.00046482 0.0118106)
(-9.0993e-05 0.00046482 0.0118106)
(-0.000277296 0.000468829 0.0118904)
(-0.000475297 0.000475297 0.0120528)
(-0.000688375 0.000478428 0.0122926)
(-0.000906532 0.00046898 0.0125621)
(0.000917061 0.000280709 0.0124663)
(0.000685603 0.000282044 0.0121476)
(0.000468829 0.000277296 0.0118904)
(0.000271948 0.000271948 0.0117243)
(8.90298e-05 0.000268878 0.0116444)
(-8.90298e-05 0.000268878 0.0116444)
(-0.000271948 0.000271948 0.0117243)
(-0.000468829 0.000277296 0.0118904)
(-0.000685603 0.000282044 0.0121476)
(-0.000917061 0.000280709 0.0124663)
(0.000921516 9.29728e-05 0.0124123)
(0.000683175 9.2931e-05 0.0120732)
(0.00046482 9.0993e-05 0.0118106)
(0.000268878 8.90298e-05 0.0116444)
(8.79277e-05 8.79277e-05 0.0115649)
(-8.79277e-05 8.79277e-05 0.0115649)
(-0.000268878 8.90298e-05 0.0116444)
(-0.00046482 9.0993e-05 0.0118106)
(-0.000683175 9.2931e-05 0.0120732)
(-0.000921516 9.29728e-05 0.0124123)
(0.000921516 -9.29728e-05 0.0124123)
(0.000683175 -9.2931e-05 0.0120732)
(0.00046482 -9.0993e-05 0.0118106)
(0.000268878 -8.90298e-05 0.0116444)
(8.79277e-05 -8.79277e-05 0.0115649)
(-8.79277e-05 -8.79277e-05 0.0115649)
(-0.000268878 -8.90298e-05 0.0116444)
(-0.00046482 -9.0993e-05 0.0118106)
(-0.000683175 -9.2931e-05 0.0120732)
(-0.000921516 -9.29728e-05 0.0124123)
(0.000917061 -0.000280709 0.0124663)
(0.000685603 -0.000282044 0.0121476)
(0.000468829 -0.000277296 0.0118904)
(0.000271948 -0.000271948 0.0117243)
(8.90298e-05 -0.000268878 0.0116444)
(-8.90298e-05 -0.000268878 0.0116444)
(-0.000271948 -0.000271948 0.0117243)
(-0.000468829 -0.000277296 0.0118904)
(-0.000685603 -0.000282044 0.0121476)
(-0.000917061 -0.000280709 0.0124663)
(0.000906532 -0.00046898 0.0125621)
(0.000688375 -0.000478428 0.0122926)
(0.000475297 -0.000475297 0.0120528)
(0.000277296 -0.000468829 0.0118904)
(9.0993e-05 -0.00046482 0.0118106)
(-9.0993e-05 -0.00046482 0.0118106)
(-0.000277296 -0.000468829 0.0118904)
(-0.000475297 -0.000475297 0.0120528)
(-0.000688375 -0.000478428 0.0122926)
(-0.000906532 -0.00046898 0.0125621)
(0.000878257 -0.000657684 0.0126629)
(0.00068243 -0.00068243 0.0124872)
(0.000478428 -0.000688375 0.0122926)
(0.000282044 -0.000685603 0.0121476)
(9.2931e-05 -0.000683175 0.0120732)
(-9.2931e-05 -0.000683175 0.0120732)
(-0.000282044 -0.000685603 0.0121476)
(-0.000478428 -0.000688375 0.0122926)
(-0.00068243 -0.00068243 0.0124872)
(-0.000878257 -0.000657684 0.0126629)
(0.00082911 -0.00082911 0.0127001)
(0.000657684 -0.000878257 0.0126629)
(0.00046898 -0.000906532 0.0125621)
(0.000280709 -0.000917061 0.0124663)
(9.29728e-05 -0.000921516 0.0124123)
(-9.29728e-05 -0.000921516 0.0124123)
(-0.000280709 -0.000917061 0.0124663)
(-0.00046898 -0.000906532 0.0125621)
(-0.000657684 -0.000878257 0.0126629)
(-0.00082911 -0.00082911 0.0127001)
(0.000678319 0.000678319 0.0125261)
(0.000569847 0.000770533 0.0128292)
(0.000430909 0.000832618 0.0129418)
(0.000266939 0.000868403 0.0129635)
(8.9991e-05 0.000884992 0.0129599)
(-8.9991e-05 0.000884992 0.0129599)
(-0.000266939 0.000868403 0.0129635)
(-0.000430909 0.000832618 0.0129418)
(-0.000569847 0.000770533 0.0128292)
(-0.000678319 0.000678319 0.0125261)
(0.000770533 0.000569847 0.0128292)
(0.000643548 0.000643548 0.0129608)
(0.000476417 0.00068539 0.0129221)
(0.000290857 0.000705525 0.0128461)
(9.74896e-05 0.00071365 0.0127961)
(-9.74896e-05 0.00071365 0.0127961)
(-0.000290857 0.000705525 0.0128461)
(-0.000476417 0.00068539 0.0129221)
(-0.000643548 0.000643548 0.0129608)
(-0.000770533 0.000569847 0.0128292)
(0.000832618 0.000430909 0.0129418)
(0.00068539 0.000476417 0.0129221)
(0.000499599 0.000499599 0.0127791)
(0.000301534 0.000508896 0.0126444)
(0.000100565 0.000511932 0.0125692)
(-0.000100565 0.000511932 0.0125692)
(-0.000301534 0.000508896 0.0126444)
(-0.000499599 0.000499599 0.0127791)
(-0.00068539 0.000476417 0.0129221)
(-0.000832618 0.000430909 0.0129418)
(0.000868403 0.000266939 0.0129635)
(0.000705525 0.000290857 0.0128461)
(0.000508896 0.000301534 0.0126444)
(0.000304991 0.000304991 0.012481)
(0.000101404 0.000305761 0.0123947)
(-0.000101404 0.000305761 0.0123947)
(-0.000304991 0.000304991 0.012481)
(-0.000508896 0.000301534 0.0126444)
(-0.000705525 0.000290857 0.0128461)
(-0.000868403 0.000266939 0.0129635)
(0.000884992 8.9991e-05 0.0129599)
(0.00071365 9.74896e-05 0.0127961)
(0.000511932 0.000100565 0.0125692)
(0.000305761 0.000101404 0.0123947)
(0.000101509 0.000101509 0.0123047)
(-0.000101509 0.000101509 0.0123047)
(-0.000305761 0.000101404 0.0123947)
(-0.000511932 0.000100565 0.0125692)
(-0.00071365 9.74896e-05 0.0127961)
(-0.000884992 8.9991e-05 0.0129599)
(0.000884992 -8.9991e-05 0.0129599)
(0.00071365 -9.74896e-05 0.0127961)
(0.000511932 -0.000100565 0.0125692)
(0.000305761 -0.000101404 0.0123947)
(0.000101509 -0.000101509 0.0123047)
(-0.000101509 -0.000101509 0.0123047)
(-0.000305761 -0.000101404 0.0123947)
(-0.000511932 -0.000100565 0.0125692)
(-0.00071365 -9.74896e-05 0.0127961)
(-0.000884992 -8.9991e-05 0.0129599)
(0.000868403 -0.000266939 0.0129635)
(0.000705525 -0.000290857 0.0128461)
(0.000508896 -0.000301534 0.0126444)
(0.000304991 -0.000304991 0.012481)
(0.000101404 -0.000305761 0.0123947)
(-0.000101404 -0.000305761 0.0123947)
(-0.000304991 -0.000304991 0.012481)
(-0.000508896 -0.000301534 0.0126444)
(-0.000705525 -0.000290857 0.0128461)
(-0.000868403 -0.000266939 0.0129635)
(0.000832618 -0.000430909 0.0129418)
(0.00068539 -0.000476417 0.0129221)
(0.000499599 -0.000499599 0.0127791)
(0.000301534 -0.000508896 0.0126444)
(0.000100565 -0.000511932 0.0125692)
(-0.000100565 -0.000511932 0.0125692)
(-0.000301534 -0.000508896 0.0126444)
(-0.000499599 -0.000499599 0.0127791)
(-0.00068539 -0.000476417 0.0129221)
(-0.000832618 -0.000430909 0.0129418)
(0.000770533 -0.000569847 0.0128292)
(0.000643548 -0.000643548 0.0129608)
(0.000476417 -0.00068539 0.0129221)
(0.000290857 -0.000705525 0.0128461)
(9.74896e-05 -0.00071365 0.0127961)
(-9.74896e-05 -0.00071365 0.0127961)
(-0.000290857 -0.000705525 0.0128461)
(-0.000476417 -0.00068539 0.0129221)
(-0.000643548 -0.000643548 0.0129608)
(-0.000770533 -0.000569847 0.0128292)
(0.000678319 -0.000678319 0.0125261)
(0.000569847 -0.000770533 0.0128292)
(0.000430909 -0.000832618 0.0129418)
(0.000266939 -0.000868403 0.0129635)
(8.9991e-05 -0.000884992 0.0129599)
(-8.9991e-05 -0.000884992 0.0129599)
(-0.000266939 -0.000868403 0.0129635)
(-0.000430909 -0.000832618 0.0129418)
(-0.000569847 -0.000770533 0.0128292)
(-0.000678319 -0.000678319 0.0125261)
(0.000390249 0.000390249 0.0127562)
(0.00034033 0.00047431 0.0132673)
(0.000269189 0.000535621 0.0135319)
(0.00017088 0.000575532 0.0136476)
(5.83408e-05 0.000594631 0.0136877)
(-5.83408e-05 0.000594631 0.0136877)
(-0.00017088 0.000575532 0.0136476)
(-0.000269189 0.000535621 0.0135319)
(-0.00034033 0.00047431 0.0132673)
(-0.000390249 0.000390249 0.0127562)
(0.00047431 0.00034033 0.0132673)
(0.000416386 0.000416386 0.0136339)
(0.000321227 0.000467412 0.0137383)
(0.0002012 0.000497394 0.0137377)
(6.82881e-05 0.000511098 0.0137188)
(-6.82881e-05 0.000511098 0.0137188)
(-0.0002012 0.000497394 0.0137377)
(-0.000321227 0.000467412 0.0137383)
(-0.000416386 0.000416386 0.0136339)
(-0.00047431 0.00034033 0.0132673)
(0.000535621 0.000269189 0.0135319)
(0.000467412 0.000321227 0.0137383)
(0.000355358 0.000355358 0.0137104)
(0.000220238 0.000374468 0.0136245)
(7.4402e-05 0.000382897 0.0135656)
(-7.4402e-05 0.000382897 0.0135656)
(-0.000220238 0.000374468 0.0136245)
(-0.000355358 0.000355358 0.0137104)
(-0.000467412 0.000321227 0.0137383)
(-0.000535621 0.000269189 0.0135319)
(0.000575532 0.00017088 0.0136476)
(0.000497394 0.0002012 0.0137377)
(0.000374468 0.000220238 0.0136245)
(0.000230592 0.000230592 0.0134892)
(7.76826e-05 0.00023506 0.0134087)
(-7.76826e-05 0.00023506 0.0134087)
(-0.000230592 0.000230592 0.0134892)
(-0.000374468 0.000220238 0.0136245)
(-0.000497394 0.0002012 0.0137377)
(-0.000575532 0.00017088 0.0136476)
(0.000594631 5.83408e-05 0.0136877)
(0.000511098 6.82881e-05 0.0137188)
(0.000382897 7.4402e-05 0.0135656)
(0.00023506 7.76826e-05 0.0134087)
(7.90825e-05 7.90825e-05 0.0133195)
(-7.90825e-05 7.90825e-05 0.0133195)
(-0.00023506 7.76826e-05 0.0134087)
(-0.000382897 7.4402e-05 0.0135656)
(-0.000511098 6.82881e-05 0.0137188)
(-0.000594631 5.83408e-05 0.0136877)
(0.000594631 -5.83408e-05 0.0136877)
(0.000511098 -6.82881e-05 0.0137188)
(0.000382897 -7.4402e-05 0.0135656)
(0.00023506 -7.76826e-05 0.0134087)
(7.90825e-05 -7.90825e-05 0.0133195)
(-7.90825e-05 -7.90825e-05 0.0133195)
(-0.00023506 -7.76826e-05 0.0134087)
(-0.000382897 -7.4402e-05 0.0135656)
(-0.000511098 -6.82881e-05 0.0137188)
(-0.000594631 -5.83408e-05 0.0136877)
(0.000575532 -0.00017088 0.0136476)
(0.000497394 -0.0002012 0.0137377)
(0.000374468 -0.000220238 0.0136245)
(0.000230592 -0.000230592 0.0134892)
(7.76826e-05 -0.00023506 0.0134087)
(-7.76826e-05 -0.00023506 0.0134087)
(-0.000230592 -0.000230592 0.0134892)
(-0.000374468 -0.000220238 0.0136245)
(-0.000497394 -0.0002012 0.0137377)
(-0.000575532 -0.00017088 0.0136476)
(0.000535621 -0.000269189 0.0135319)
(0.000467412 -0.000321227 0.0137383)
(0.000355358 -0.000355358 0.0137104)
(0.000220238 -0.000374468 0.0136245)
(7.4402e-05 -0.000382897 0.0135656)
(-7.4402e-05 -0.000382897 0.0135656)
(-0.000220238 -0.000374468 0.0136245)
(-0.000355358 -0.000355358 0.0137104)
(-0.000467412 -0.000321227 0.0137383)
(-0.000535621 -0.000269189 0.0135319)
(0.00047431 -0.00034033 0.0132673)
(0.000416386 -0.000416386 0.0136339)
(0.000321227 -0.000467412 0.0137383)
(0.0002012 -0.000497394 0.0137377)
(6.82881e-05 -0.000511098 0.0137188)
(-6.82881e-05 -0.000511098 0.0137188)
(-0.0002012 -0.000497394 0.0137377)
(-0.000321227 -0.000467412 0.0137383)
(-0.000416386 -0.000416386 0.0136339)
(-0.00047431 -0.00034033 0.0132673)
(0.000390249 -0.000390249 0.0127562)
(0.00034033 -0.00047431 0.0132673)
(0.000269189 -0.000535621 0.0135319)
(0.00017088 -0.000575532 0.0136476)
(5.83408e-05 -0.000594631 0.0136877)
(-5.83408e-05 -0.000594631 0.0136877)
(-0.00017088 -0.000575532 0.0136476)
(-0.000269189 -0.000535621 0.0135319)
(-0.00034033 -0.00047431 0.0132673)
(-0.000390249 -0.000390249 0.0127562)
(0.000231889 0.000231889 0.0126404)
(0.000205995 0.000287844 0.0132999)
(0.0001676 0.000332399 0.0136843)
(0.000108102 0.000363107 0.0138807)
(3.72197e-05 0.000378218 0.0139606)
(-3.72197e-05 0.000378219 0.0139606)
(-0.000108102 0.000363107 0.0138807)
(-0.0001676 0.000332399 0.0136843)
(-0.000205995 0.000287844 0.0132999)
(-0.000231889 0.000231889 0.0126404)
(0.000287844 0.000205995 0.0132999)
(0.000262018 0.000262018 0.0138581)
(0.000208519 0.000303107 0.0140973)
(0.000133171 0.000329403 0.0141789)
(4.5637e-05 0.000342044 0.0141982)
(-4.5637e-05 0.000342044 0.0141982)
(-0.000133171 0.000329403 0.0141789)
(-0.000208519 0.000303107 0.0140973)
(-0.000262018 0.000262017 0.0138581)
(-0.000287844 0.000205995 0.0132999)
(0.000332399 0.0001676 0.0136843)
(0.000303107 0.000208519 0.0140973)
(0.000238462 0.000238462 0.0142009)
(0.000151067 0.000257097 0.0141885)
(5.15851e-05 0.000265907 0.0141617)
(-5.15851e-05 0.000265907 0.0141617)
(-0.000151067 0.000257097 0.0141885)
(-0.000238462 0.000238462 0.0142009)
(-0.000303107 0.000208519 0.0140973)
(-0.000332399 0.0001676 0.0136843)
(0.000363107 0.000108102 0.0138807)
(0.000329403 0.000133171 0.0141789)
(0.000257097 0.000151067 0.0141885)
(0.000162026 0.000162026 0.0141173)
(5.52039e-05 0.000167155 0.0140637)
(-5.52039e-05 0.000167155 0.0140637)
(-0.000162026 0.000162026 0.0141173)
(-0.000257097 0.000151067 0.0141885)
(-0.000329403 0.000133171 0.0141789)
(-0.000363107 0.000108102 0.0138807)
(0.000378219 3.72197e-05 0.0139606)
(0.000342044 4.5637e-05 0.0141982)
(0.000265907 5.15851e-05 0.0141617)
(0.000167155 5.52039e-05 0.0140637)
(5.68901e-05 5.68901e-05 0.0139987)
(-5.68901e-05 5.68901e-05 0.0139987)
(-0.000167155 5.52039e-05 0.0140637)
(-0.000265907 5.15851e-05 0.0141617)
(-0.000342044 4.5637e-05 0.0141982)
(-0.000378218 3.72197e-05 0.0139606)
(0.000378219 -3.72197e-05 0.0139606)
(0.000342044 -4.5637e-05 0.0141982)
(0.000265907 -5.15851e-05 0.0141617)
(0.000167155 -5.52039e-05 0.0140637)
(5.68901e-05 -5.68901e-05 0.0139987)
(-5.68901e-05 -5.68901e-05 0.0139987)
(-0.000167155 -5.52039e-05 0.0140637)
(-0.000265907 -5.15851e-05 0.0141617)
(-0.000342044 -4.5637e-05 0.0141982)
(-0.000378218 -3.72197e-05 0.0139606)
(0.000363107 -0.000108102 0.0138807)
(0.000329403 -0.000133171 0.0141789)
(0.000257097 -0.000151067 0.0141885)
(0.000162026 -0.000162026 0.0141173)
(5.52039e-05 -0.000167155 0.0140637)
(-5.52039e-05 -0.000167155 0.0140637)
(-0.000162026 -0.000162026 0.0141173)
(-0.000257097 -0.000151067 0.0141885)
(-0.000329403 -0.000133171 0.0141789)
(-0.000363107 -0.000108102 0.0138807)
(0.000332399 -0.0001676 0.0136843)
(0.000303107 -0.000208519 0.0140973)
(0.000238462 -0.000238462 0.0142009)
(0.000151067 -0.000257097 0.0141885)
(5.15851e-05 -0.000265907 0.0141617)
(-5.15851e-05 -0.000265907 0.0141617)
(-0.000151067 -0.000257097 0.0141885)
(-0.000238462 -0.000238462 0.0142009)
(-0.000303107 -0.000208519 0.0140973)
(-0.000332399 -0.0001676 0.0136843)
(0.000287844 -0.000205995 0.0132999)
(0.000262018 -0.000262017 0.0138581)
(0.000208519 -0.000303107 0.0140973)
(0.000133171 -0.000329403 0.0141789)
(4.5637e-05 -0.000342044 0.0141982)
(-4.5637e-05 -0.000342044 0.0141982)
(-0.000133171 -0.000329403 0.0141789)
(-0.000208519 -0.000303107 0.0140973)
(-0.000262017 -0.000262017 0.0138581)
(-0.000287844 -0.000205995 0.0132999)
(0.000231889 -0.000231889 0.0126404)
(0.000205995 -0.000287844 0.0132999)
(0.0001676 -0.000332399 0.0136843)
(0.000108102 -0.000363107 0.0138807)
(3.72197e-05 -0.000378218 0.0139606)
(-3.72197e-05 -0.000378218 0.0139606)
(-0.000108102 -0.000363107 0.0138807)
(-0.0001676 -0.000332399 0.0136843)
(-0.000205995 -0.000287844 0.0132999)
(-0.000231889 -0.000231889 0.0126404)
(0.000114533 0.000114533 0.0125513)
(0.000105144 0.000148046 0.0132768)
(8.88666e-05 0.000176713 0.0137223)
(5.85709e-05 0.000197581 0.0139635)
(2.03963e-05 0.000208163 0.0140668)
(-2.03963e-05 0.000208163 0.0140668)
(-5.85709e-05 0.000197581 0.0139635)
(-8.88666e-05 0.000176713 0.0137223)
(-0.000105144 0.000148046 0.0132768)
(-0.000114533 0.000114533 0.0125513)
(0.000148046 0.000105144 0.0132768)
(0.000141605 0.000141605 0.0139385)
(0.000117446 0.000170819 0.0142607)
(7.69789e-05 0.000190998 0.0143984)
(2.67241e-05 0.000201151 0.0144456)
(-2.6724e-05 0.000201151 0.0144456)
(-7.69789e-05 0.000190998 0.0143984)
(-0.000117446 0.000170819 0.0142607)
(-0.000141605 0.000141605 0.0139385)
(-0.000148046 0.000105144 0.0132768)
(0.000176713 8.88666e-05 0.0137223)
(0.000170819 0.000117446 0.0142607)
(0.000140596 0.000140596 0.0144579)
(9.16684e-05 0.000156299 0.014505)
(3.17476e-05 0.000164127 0.0145067)
(-3.17475e-05 0.000164127 0.0145067)
(-9.16683e-05 0.000156299 0.014505)
(-0.000140596 0.000140596 0.0144579)
(-0.000170819 0.000117446 0.0142607)
(-0.000176713 8.88666e-05 0.0137223)
(0.000197581 5.85709e-05 0.0139635)
(0.000190998 7.69789e-05 0.0143984)
(0.000156299 9.16684e-05 0.014505)
(0.000101522 0.000101522 0.0144931)
(3.51019e-05 0.000106401 0.0144674)
(-3.51019e-05 0.000106401 0.0144674)
(-0.000101522 0.000101522 0.0144931)
(-0.000156299 9.16684e-05 0.014505)
(-0.000190998 7.69789e-05 0.0143984)
(-0.000197581 5.85709e-05 0.0139635)
(0.000208163 2.03963e-05 0.0140668)
(0.000201151 2.67241e-05 0.0144456)
(0.000164127 3.17475e-05 0.0145067)
(0.000106401 3.51019e-05 0.0144674)
(3.67573e-05 3.67573e-05 0.0144297)
(-3.67573e-05 3.67573e-05 0.0144297)
(-0.000106401 3.51019e-05 0.0144674)
(-0.000164127 3.17475e-05 0.0145067)
(-0.000201151 2.6724e-05 0.0144456)
(-0.000208163 2.03963e-05 0.0140668)
(0.000208163 -2.03963e-05 0.0140668)
(0.000201151 -2.6724e-05 0.0144456)
(0.000164127 -3.17475e-05 0.0145067)
(0.000106401 -3.51019e-05 0.0144674)
(3.67573e-05 -3.67573e-05 0.0144297)
(-3.67573e-05 -3.67573e-05 0.0144297)
(-0.000106401 -3.51019e-05 0.0144674)
(-0.000164127 -3.17475e-05 0.0145067)
(-0.000201151 -2.6724e-05 0.0144456)
(-0.000208163 -2.03963e-05 0.0140668)
(0.000197581 -5.85709e-05 0.0139635)
(0.000190998 -7.69789e-05 0.0143984)
(0.000156299 -9.16684e-05 0.014505)
(0.000101522 -0.000101522 0.0144931)
(3.51019e-05 -0.000106401 0.0144674)
(-3.51019e-05 -0.000106401 0.0144674)
(-0.000101522 -0.000101522 0.0144931)
(-0.000156299 -9.16684e-05 0.014505)
(-0.000190998 -7.69789e-05 0.0143984)
(-0.000197581 -5.85709e-05 0.0139635)
(0.000176713 -8.88666e-05 0.0137223)
(0.000170819 -0.000117446 0.0142607)
(0.000140596 -0.000140596 0.0144579)
(9.16684e-05 -0.000156299 0.014505)
(3.17475e-05 -0.000164127 0.0145067)
(-3.17475e-05 -0.000164127 0.0145067)
(-9.16684e-05 -0.000156299 0.014505)
(-0.000140596 -0.000140596 0.0144579)
(-0.000170819 -0.000117446 0.0142607)
(-0.000176713 -8.88665e-05 0.0137223)
(0.000148046 -0.000105144 0.0132768)
(0.000141605 -0.000141605 0.0139385)
(0.000117446 -0.000170819 0.0142607)
(7.6979e-05 -0.000190998 0.0143984)
(2.6724e-05 -0.000201151 0.0144456)
(-2.6724e-05 -0.000201151 0.0144456)
(-7.69789e-05 -0.000190998 0.0143984)
(-0.000117446 -0.000170819 0.0142607)
(-0.000141605 -0.000141605 0.0139385)
(-0.000148046 -0.000105144 0.0132768)
(0.000114533 -0.000114533 0.0125513)
(0.000105144 -0.000148046 0.0132768)
(8.88666e-05 -0.000176713 0.0137223)
(5.85709e-05 -0.000197581 0.0139635)
(2.03963e-05 -0.000208163 0.0140668)
(-2.03963e-05 -0.000208163 0.0140668)
(-5.85709e-05 -0.000197581 0.0139635)
(-8.88665e-05 -0.000176713 0.0137223)
(-0.000105144 -0.000148046 0.0132768)
(-0.000114533 -0.000114533 0.0125513)
(4.95958e-05 4.95958e-05 0.0124914)
(4.70952e-05 6.64695e-05 0.0132443)
(4.13437e-05 8.20004e-05 0.0137188)
(2.7841e-05 9.38978e-05 0.0139834)
(9.81106e-06 0.000100113 0.0140994)
(-9.81106e-06 0.000100113 0.0140994)
(-2.7841e-05 9.38978e-05 0.0139834)
(-4.13437e-05 8.20004e-05 0.0137188)
(-4.70952e-05 6.64695e-05 0.0132443)
(-4.95958e-05 4.95958e-05 0.0124914)
(6.64695e-05 4.70952e-05 0.0132443)
(6.71199e-05 6.71199e-05 0.0139573)
(5.81947e-05 8.45678e-05 0.0143266)
(3.92017e-05 9.74347e-05 0.0144994)
(1.37998e-05 0.000104158 0.014565)
(-1.37998e-05 0.000104158 0.014565)
(-3.92017e-05 9.74347e-05 0.0144994)
(-5.81947e-05 8.45678e-05 0.0143266)
(-6.71199e-05 6.71198e-05 0.0139573)
(-6.64695e-05 4.70952e-05 0.0132443)
(8.20004e-05 4.13437e-05 0.0137188)
(8.45678e-05 5.81947e-05 0.0143266)
(7.31074e-05 7.31074e-05 0.0145839)
(4.9146e-05 8.39422e-05 0.0146737)
(1.7278e-05 8.95598e-05 0.0146972)
(-1.7278e-05 8.95598e-05 0.0146972)
(-4.9146e-05 8.39422e-05 0.0146737)
(-7.31074e-05 7.31074e-05 0.0145839)
(-8.45678e-05 5.81947e-05 0.0143266)
(-8.20003e-05 4.13437e-05 0.0137188)
(9.38978e-05 2.7841e-05 0.0139834)
(9.74347e-05 3.92017e-05 0.0144994)
(8.39422e-05 4.9146e-05 0.0146737)
(5.62946e-05 5.62946e-05 0.0147085)
(1.97664e-05 5.99749e-05 0.0147062)
(-1.97664e-05 5.99749e-05 0.0147062)
(-5.62946e-05 5.62946e-05 0.0147085)
(-8.39422e-05 4.9146e-05 0.0146737)
(-9.74346e-05 3.92017e-05 0.0144994)
(-9.38978e-05 2.7841e-05 0.0139834)
(0.000100113 9.81106e-06 0.0140994)
(0.000104158 1.37998e-05 0.014565)
(8.95598e-05 1.7278e-05 0.0146972)
(5.99749e-05 1.97664e-05 0.0147062)
(2.10429e-05 2.10429e-05 0.0146925)
(-2.10429e-05 2.10429e-05 0.0146925)
(-5.99749e-05 1.97664e-05 0.0147062)
(-8.95598e-05 1.7278e-05 0.0146972)
(-0.000104158 1.37998e-05 0.014565)
(-0.000100113 9.81106e-06 0.0140994)
(0.000100113 -9.81106e-06 0.0140994)
(0.000104158 -1.37998e-05 0.014565)
(8.95598e-05 -1.7278e-05 0.0146972)
(5.99749e-05 -1.97664e-05 0.0147062)
(2.10429e-05 -2.10429e-05 0.0146925)
(-2.10429e-05 -2.10429e-05 0.0146925)
(-5.99749e-05 -1.97664e-05 0.0147062)
(-8.95598e-05 -1.7278e-05 0.0146972)
(-0.000104158 -1.37998e-05 0.014565)
(-0.000100113 -9.81106e-06 0.0140994)
(9.38978e-05 -2.7841e-05 0.0139834)
(9.74347e-05 -3.92017e-05 0.0144994)
(8.39422e-05 -4.9146e-05 0.0146737)
(5.62946e-05 -5.62946e-05 0.0147085)
(1.97664e-05 -5.99749e-05 0.0147062)
(-1.97664e-05 -5.99749e-05 0.0147062)
(-5.62946e-05 -5.62946e-05 0.0147085)
(-8.39422e-05 -4.9146e-05 0.0146737)
(-9.74347e-05 -3.92017e-05 0.0144994)
(-9.38978e-05 -2.7841e-05 0.0139834)
(8.20004e-05 -4.13437e-05 0.0137188)
(8.45679e-05 -5.81947e-05 0.0143266)
(7.31074e-05 -7.31074e-05 0.0145839)
(4.9146e-05 -8.39422e-05 0.0146737)
(1.7278e-05 -8.95598e-05 0.0146972)
(-1.7278e-05 -8.95598e-05 0.0146972)
(-4.9146e-05 -8.39422e-05 0.0146737)
(-7.31074e-05 -7.31074e-05 0.0145839)
(-8.45678e-05 -5.81947e-05 0.0143266)
(-8.20004e-05 -4.13437e-05 0.0137188)
(6.64695e-05 -4.70952e-05 0.0132443)
(6.71199e-05 -6.71198e-05 0.0139573)
(5.81947e-05 -8.45678e-05 0.0143266)
(3.92017e-05 -9.74347e-05 0.0144994)
(1.37998e-05 -0.000104158 0.014565)
(-1.37998e-05 -0.000104158 0.014565)
(-3.92017e-05 -9.74347e-05 0.0144994)
(-5.81947e-05 -8.45678e-05 0.0143266)
(-6.71198e-05 -6.71198e-05 0.0139573)
(-6.64696e-05 -4.70952e-05 0.0132443)
(4.95958e-05 -4.95958e-05 0.0124914)
(4.70952e-05 -6.64695e-05 0.0132443)
(4.13437e-05 -8.20003e-05 0.0137188)
(2.7841e-05 -9.38978e-05 0.0139834)
(9.81106e-06 -0.000100113 0.0140994)
(-9.81106e-06 -0.000100113 0.0140994)
(-2.7841e-05 -9.38978e-05 0.0139834)
(-4.13437e-05 -8.20004e-05 0.0137188)
(-4.70952e-05 -6.64695e-05 0.0132443)
(-4.95958e-05 -4.95958e-05 0.0124914)
(1.8913e-05 1.8913e-05 0.012456)
(1.87979e-05 2.6491e-05 0.013217)
(1.7265e-05 3.39403e-05 0.0137026)
(1.19269e-05 3.99087e-05 0.0139773)
(4.2625e-06 4.31143e-05 0.0140993)
(-4.26249e-06 4.31143e-05 0.0140993)
(-1.19269e-05 3.99087e-05 0.0139773)
(-1.7265e-05 3.39403e-05 0.0137026)
(-1.87979e-05 2.6491e-05 0.013217)
(-1.8913e-05 1.8913e-05 0.012456)
(2.6491e-05 1.87979e-05 0.013217)
(2.85685e-05 2.85685e-05 0.013951)
(2.60451e-05 3.77329e-05 0.0143431)
(1.80825e-05 4.48599e-05 0.0145347)
(6.46289e-06 4.86985e-05 0.0146109)
(-6.46289e-06 4.86985e-05 0.0146109)
(-1.80825e-05 4.48599e-05 0.0145347)
(-2.60451e-05 3.77329e-05 0.0143431)
(-2.85685e-05 2.85685e-05 0.013951)
(-2.6491e-05 1.87979e-05 0.013217)
(3.39403e-05 1.7265e-05 0.0137026)
(3.77329e-05 2.60451e-05 0.0143431)
(3.44024e-05 3.44024e-05 0.0146337)
(2.38796e-05 4.08036e-05 0.0147494)
(8.52643e-06 4.4221e-05 0.014787)
(-8.52643e-06 4.4221e-05 0.014787)
(-2.38796e-05 4.08036e-05 0.0147494)
(-3.44024e-05 3.44024e-05 0.0146337)
(-3.77329e-05 2.60451e-05 0.0143431)
(-3.39403e-05 1.7265e-05 0.0137026)
(3.99087e-05 1.19269e-05 0.0139773)
(4.48599e-05 1.80825e-05 0.0145347)
(4.08036e-05 2.38796e-05 0.0147494)
(2.8268e-05 2.8268e-05 0.0148148)
(1.00796e-05 3.05915e-05 0.0148287)
(-1.00796e-05 3.05915e-05 0.0148287)
(-2.8268e-05 2.8268e-05 0.0148148)
(-4.08036e-05 2.38796e-05 0.0147494)
(-4.48599e-05 1.80825e-05 0.0145347)
(-3.99087e-05 1.19269e-05 0.0139773)
(4.31144e-05 4.26249e-06 0.0140993)
(4.86985e-05 6.46289e-06 0.0146109)
(4.4221e-05 8.52643e-06 0.014787)
(3.05915e-05 1.00796e-05 0.0148287)
(1.08984e-05 1.08984e-05 0.0148321)
(-1.08983e-05 1.08984e-05 0.0148321)
(-3.05914e-05 1.00796e-05 0.0148287)
(-4.4221e-05 8.52643e-06 0.014787)
(-4.86985e-05 6.46289e-06 0.0146109)
(-4.31143e-05 4.26249e-06 0.0140993)
(4.31144e-05 -4.26249e-06 0.0140993)
(4.86985e-05 -6.46289e-06 0.0146109)
(4.4221e-05 -8.52643e-06 0.014787)
(3.05915e-05 -1.00796e-05 0.0148287)
(1.08984e-05 -1.08984e-05 0.0148321)
(-1.08983e-05 -1.08983e-05 0.0148321)
(-3.05914e-05 -1.00796e-05 0.0148287)
(-4.4221e-05 -8.52643e-06 0.014787)
(-4.86985e-05 -6.46289e-06 0.0146109)
(-4.31143e-05 -4.26249e-06 0.0140993)
(3.99087e-05 -1.19269e-05 0.0139773)
(4.48599e-05 -1.80825e-05 0.0145347)
(4.08036e-05 -2.38796e-05 0.0147494)
(2.8268e-05 -2.8268e-05 0.0148148)
(1.00796e-05 -3.05914e-05 0.0148287)
(-1.00796e-05 -3.05914e-05 0.0148287)
(-2.8268e-05 -2.8268e-05 0.0148148)
(-4.08036e-05 -2.38796e-05 0.0147494)
(-4.48599e-05 -1.80825e-05 0.0145347)
(-3.99087e-05 -1.19269e-05 0.0139773)
(3.39403e-05 -1.7265e-05 0.0137026)
(3.77329e-05 -2.60451e-05 0.0143431)
(3.44024e-05 -3.44024e-05 0.0146337)
(2.38796e-05 -4.08036e-05 0.0147494)
(8.52644e-06 -4.4221e-05 0.014787)
(-8.52642e-06 -4.4221e-05 0.014787)
(-2.38796e-05 -4.08036e-05 0.0147494)
(-3.44024e-05 -3.44024e-05 0.0146337)
(-3.77329e-05 -2.60451e-05 0.0143431)
(-3.39403e-05 -1.7265e-05 0.0137026)
(2.6491e-05 -1.87979e-05 0.013217)
(2.85685e-05 -2.85685e-05 0.013951)
(2.60451e-05 -3.77329e-05 0.0143431)
(1.80825e-05 -4.48599e-05 0.0145347)
(6.4629e-06 -4.86985e-05 0.0146109)
(-6.46289e-06 -4.86985e-05 0.0146109)
(-1.80825e-05 -4.48599e-05 0.0145347)
(-2.60451e-05 -3.77329e-05 0.0143431)
(-2.85685e-05 -2.85685e-05 0.013951)
(-2.6491e-05 -1.87979e-05 0.013217)
(1.8913e-05 -1.8913e-05 0.012456)
(1.87979e-05 -2.6491e-05 0.013217)
(1.7265e-05 -3.39403e-05 0.0137026)
(1.19269e-05 -3.99087e-05 0.0139773)
(4.2625e-06 -4.31143e-05 0.0140993)