/*--------------------------------*- C++ -*----------------------------------*\
| =========                 |                                                 |
| \\      /  F ield         | OpenFOAM: The Open Source CFD Toolbox           |
|  \\    /   O peration     | Version:  2412                                  |
|   \\  /    A nd           | Website:  www.openfoam.com                      |
|    \\/     M anipulation  |                                                 |
\*---------------------------------------------------------------------------*/
FoamFile
{
    version     2.0;
    format      ascii;
    arch        "LSB;label=32;scalar=64";
    class       surfaceScalarField;
    location    "0.8";
    object      phi;
}
// * * * * * * * * * * * * * * * * * * * * * * * * * * * * * * * * * * * * * //

dimensions      [0 3 -1 0 0 0 0];

oriented        oriented;

internalField   nonuniform List<scalar> 
43700
(
3.50554e-05
3.50554e-05
5.67904e-05
-3.99497e-05
-3.99497e-05
2.79896e-05
3.49061e-05
6.361e-05
-4.0512e-05
1.93664e-05
3.43001e-05
6.84081e-05
-4.01419e-05
9.87197e-06
3.37123e-05
7.14682e-05
-3.97149e-05
1.23414e-13
3.33716e-05
7.29485e-05
-3.94552e-05
-9.87197e-06
3.33716e-05
7.29485e-05
-3.94552e-05
-1.93664e-05
3.37124e-05
7.14682e-05
-3.97149e-05
-2.79896e-05
3.43001e-05
6.84081e-05
-4.01419e-05
-3.50554e-05
3.49061e-05
6.361e-05
-4.0512e-05
3.50554e-05
5.67904e-05
-3.99497e-05
-3.99497e-05
3.49061e-05
2.79896e-05
6.361e-05
-4.0512e-05
2.72463e-05
2.72463e-05
6.99039e-05
1.8527e-05
2.64289e-05
7.39595e-05
9.34111e-06
2.57681e-05
7.63798e-05
1.4705e-12
2.54048e-05
7.75051e-05
-9.3411e-06
2.54048e-05
7.75051e-05
-1.8527e-05
2.57681e-05
7.63798e-05
-2.72463e-05
2.64289e-05
7.39595e-05
-3.49061e-05
2.72463e-05
6.99039e-05
2.79896e-05
6.361e-05
-4.0512e-05
3.43001e-05
1.93664e-05
6.84081e-05
-4.01419e-05
2.64289e-05
1.8527e-05
7.39595e-05
1.77621e-05
1.77621e-05
7.7321e-05
8.88608e-06
1.71912e-05
7.92091e-05
2.14576e-12
1.68879e-05
8.00508e-05
-8.88607e-06
1.68879e-05
8.00508e-05
-1.77621e-05
1.71912e-05
7.92091e-05
-2.64289e-05
1.77621e-05
7.7321e-05
-3.43001e-05
1.8527e-05
7.39595e-05
1.93664e-05
6.84081e-05
-4.01419e-05
3.37124e-05
9.87197e-06
7.14682e-05
-3.97149e-05
2.57681e-05
9.3411e-06
7.63798e-05
1.71912e-05
8.88608e-06
7.92091e-05
8.55751e-06
8.55752e-06
8.07177e-05
1.17315e-12
8.38583e-06
8.13638e-05
-8.55751e-06
8.38583e-06
8.13638e-05
-1.71912e-05
8.55751e-06
8.07177e-05
-2.57681e-05
8.88607e-06
7.92091e-05
-3.37124e-05
9.3411e-06
7.63798e-05
9.87197e-06
7.14682e-05
-3.97149e-05
3.33716e-05
1.79916e-13
7.29485e-05
-3.94552e-05
2.54048e-05
-1.72817e-13
7.75051e-05
1.68879e-05
3.36825e-13
8.00508e-05
8.38583e-06
1.31264e-12
8.13638e-05
-5.09211e-13
1.86492e-12
8.19109e-05
-8.38583e-06
1.22613e-12
8.19109e-05
-1.68879e-05
-5.63294e-13
8.13638e-05
-2.54048e-05
-2.22158e-12
8.00508e-05
-3.33716e-05
-2.45952e-12
7.75051e-05
-8.6449e-13
7.29485e-05
-3.94552e-05
3.33716e-05
-9.87197e-06
7.29485e-05
-3.94552e-05
2.54048e-05
-9.3411e-06
7.75051e-05
1.68879e-05
-8.88607e-06
8.00508e-05
8.38583e-06
-8.55751e-06
8.13638e-05
-1.18535e-12
-8.38583e-06
8.19109e-05
-8.38583e-06
-8.38583e-06
8.19109e-05
-1.68879e-05
-8.55751e-06
8.13638e-05
-2.54048e-05
-8.88607e-06
8.00508e-05
-3.33716e-05
-9.34111e-06
7.75051e-05
-9.87197e-06
7.29485e-05
-3.94552e-05
3.37124e-05
-1.93664e-05
7.14682e-05
-3.97149e-05
2.57681e-05
-1.8527e-05
7.63798e-05
1.71912e-05
-1.77621e-05
7.92091e-05
8.55752e-06
-1.71912e-05
8.07177e-05
-4.87516e-13
-1.68879e-05
8.13638e-05
-8.55752e-06
-1.68879e-05
8.13638e-05
-1.71912e-05
-1.71912e-05
8.07177e-05
-2.57681e-05
-1.77621e-05
7.92091e-05
-3.37123e-05
-1.8527e-05
7.63798e-05
-1.93664e-05
7.14682e-05
-3.97149e-05
3.43001e-05
-2.79896e-05
6.84081e-05
-4.01419e-05
2.64289e-05
-2.72463e-05
7.39595e-05
1.77621e-05
-2.64289e-05
7.7321e-05
8.88608e-06
-2.57681e-05
7.92091e-05
5.39456e-13
-2.54048e-05
8.00508e-05
-8.88607e-06
-2.54048e-05
8.00508e-05
-1.77621e-05
-2.57681e-05
7.92091e-05
-2.64289e-05
-2.64289e-05
7.7321e-05
-3.43001e-05
-2.72463e-05
7.39595e-05
-2.79896e-05
6.84081e-05
-4.01419e-05
3.49061e-05
-3.50554e-05
6.361e-05
-4.0512e-05
2.72463e-05
-3.49061e-05
6.99039e-05
1.8527e-05
-3.43001e-05
7.39595e-05
9.3411e-06
-3.37124e-05
7.63798e-05
8.59959e-13
-3.33716e-05
7.75051e-05
-9.3411e-06
-3.33716e-05
7.75051e-05
-1.8527e-05
-3.37124e-05
7.63798e-05
-2.72463e-05
-3.43001e-05
7.39595e-05
-3.49061e-05
-3.49061e-05
6.99039e-05
-3.50554e-05
6.361e-05
-4.0512e-05
3.50554e-05
5.67904e-05
-3.99497e-05
-3.99497e-05
2.79896e-05
6.361e-05
-4.0512e-05
1.93664e-05
6.84081e-05
-4.01419e-05
9.87197e-06
7.14682e-05
-3.97149e-05
3.96377e-13
7.29485e-05
-3.94552e-05
-9.87197e-06
7.29485e-05
-3.94552e-05
-1.93664e-05
7.14682e-05
-3.97149e-05
-2.79896e-05
6.84081e-05
-4.01419e-05
-3.50554e-05
6.361e-05
-4.0512e-05
5.67904e-05
-3.99497e-05
-3.99497e-05
1.98762e-05
1.98762e-05
5.71029e-05
-2.00325e-05
-2.00325e-05
1.73632e-05
2.21649e-05
6.61817e-05
-2.22236e-05
1.27974e-05
2.37475e-05
7.30466e-05
-2.38201e-05
6.77529e-06
2.47451e-05
7.76043e-05
-2.48591e-05
2.22854e-12
2.52218e-05
7.98656e-05
-2.53637e-05
-6.77529e-06
2.52218e-05
7.98656e-05
-2.53637e-05
-1.27974e-05
2.47451e-05
7.76043e-05
-2.48591e-05
-1.73632e-05
2.37475e-05
7.30466e-05
-2.38201e-05
-1.98762e-05
2.21649e-05
6.61817e-05
-2.22236e-05
1.98762e-05
5.71029e-05
-2.00325e-05
-2.00325e-05
2.21649e-05
1.73632e-05
6.61817e-05
-2.22236e-05
1.92434e-05
1.92434e-05
7.57469e-05
1.40667e-05
2.05089e-05
8.23748e-05
7.40169e-06
2.12803e-05
8.65096e-05
2.64273e-12
2.16425e-05
8.84861e-05
-7.40169e-06
2.16425e-05
8.84861e-05
-1.40667e-05
2.12803e-05
8.65096e-05
-1.92434e-05
2.05089e-05
8.23748e-05
-2.21649e-05
1.92434e-05
7.57469e-05
1.73632e-05
6.61817e-05
-2.22236e-05
2.37475e-05
1.27974e-05
7.30466e-05
-2.38201e-05
2.05089e-05
1.40667e-05
8.23748e-05
1.49074e-05
1.49074e-05
8.85238e-05
7.81118e-06
1.54058e-05
9.21799e-05
1.29132e-13
1.56361e-05
9.38685e-05
-7.81118e-06
1.56361e-05
9.38685e-05
-1.49074e-05
1.54058e-05
9.21799e-05
-2.05089e-05
1.49074e-05
8.85238e-05
-2.37475e-05
1.40667e-05
8.23748e-05
1.27974e-05
7.30466e-05
-2.38201e-05
2.47451e-05
6.77529e-06
7.76043e-05
-2.48591e-05
2.12803e-05
7.40169e-06
8.65096e-05
1.54058e-05
7.81118e-06
9.21799e-05
8.04889e-06
8.04889e-06
9.54316e-05
-2.70585e-12
8.15735e-06
9.68914e-05
-8.04889e-06
8.15735e-06
9.68914e-05
-1.54058e-05
8.04889e-06
9.54316e-05
-2.12803e-05
7.81118e-06
9.21799e-05
-2.47451e-05
7.40169e-06
8.65096e-05
6.77529e-06
7.76043e-05
-2.48591e-05
2.52218e-05
9.62491e-13
7.98656e-05
-2.53637e-05
2.16425e-05
-5.88935e-14
8.84861e-05
1.56361e-05
-1.4055e-12
9.38685e-05
8.15735e-06
-1.38982e-12
9.68914e-05
-2.35056e-12
9.01699e-13
9.82256e-05
-8.15735e-06
3.92155e-12
9.82256e-05
-1.56361e-05
4.92802e-12
9.68914e-05
-2.16425e-05
2.40719e-12
9.38685e-05
-2.52218e-05
-2.20125e-12
8.84861e-05
-5.30391e-12
7.98656e-05
-2.53637e-05
2.52218e-05
-6.77529e-06
7.98656e-05
-2.53637e-05
2.16425e-05
-7.40169e-06
8.84861e-05
1.56361e-05
-7.81118e-06
9.38685e-05
8.15735e-06
-8.04889e-06
9.68914e-05
6.69694e-13
-8.15735e-06
9.82256e-05
-8.15735e-06
-8.15735e-06
9.82256e-05
-1.56361e-05
-8.04889e-06
9.68914e-05
-2.16425e-05
-7.81118e-06
9.38685e-05
-2.52218e-05
-7.40169e-06
8.84861e-05
-6.77529e-06
7.98656e-05
-2.53637e-05
2.47451e-05
-1.27974e-05
7.76043e-05
-2.48591e-05
2.12803e-05
-1.40667e-05
8.65096e-05
1.54058e-05
-1.49074e-05
9.21799e-05
8.0489e-06
-1.54058e-05
9.54316e-05
2.9151e-12
-1.56361e-05
9.68914e-05
-8.04889e-06
-1.56361e-05
9.68914e-05
-1.54058e-05
-1.54058e-05
9.54316e-05
-2.12803e-05
-1.49074e-05
9.21799e-05
-2.47451e-05
-1.40667e-05
8.65096e-05
-1.27974e-05
7.76043e-05
-2.48591e-05
2.37475e-05
-1.73632e-05
7.30466e-05
-2.38201e-05
2.05089e-05
-1.92434e-05
8.23748e-05
1.49074e-05
-2.05089e-05
8.85238e-05
7.81118e-06
-2.12803e-05
9.21799e-05
2.18429e-12
-2.16425e-05
9.38685e-05
-7.81118e-06
-2.16425e-05
9.38685e-05
-1.49074e-05
-2.12803e-05
9.21799e-05
-2.05089e-05
-2.05089e-05
8.85238e-05
-2.37475e-05
-1.92434e-05
8.23748e-05
-1.73632e-05
7.30466e-05
-2.38201e-05
2.21649e-05
-1.98762e-05
6.61817e-05
-2.22236e-05
1.92434e-05
-2.21649e-05
7.57469e-05
1.40667e-05
-2.37475e-05
8.23748e-05
7.40169e-06
-2.47451e-05
8.65096e-05
2.04531e-13
-2.52218e-05
8.84861e-05
-7.40169e-06
-2.52218e-05
8.84861e-05
-1.40667e-05
-2.47451e-05
8.65096e-05
-1.92434e-05
-2.37475e-05
8.23748e-05
-2.21649e-05
-2.21649e-05
7.57469e-05
-1.98762e-05
6.61817e-05
-2.22236e-05
1.98762e-05
5.71029e-05
-2.00325e-05
-2.00325e-05
1.73632e-05
6.61817e-05
-2.22236e-05
1.27974e-05
7.30466e-05
-2.38201e-05
6.77529e-06
7.76043e-05
-2.48591e-05
-3.85271e-13
7.98656e-05
-2.53637e-05
-6.77529e-06
7.98656e-05
-2.53637e-05
-1.27974e-05
7.76043e-05
-2.48591e-05
-1.73632e-05
7.30466e-05
-2.38201e-05
-1.98762e-05
6.61817e-05
-2.22236e-05
5.71029e-05
-2.00325e-05
-2.00325e-05
1.18522e-05
1.18522e-05
5.51369e-05
-1.08692e-05
-1.08692e-05
1.09851e-05
1.39502e-05
6.57001e-05
-1.26014e-05
8.42716e-06
1.54856e-05
7.40336e-05
-1.39146e-05
4.56587e-06
1.65224e-05
7.97609e-05
-1.48177e-05
2.50407e-12
1.70437e-05
8.26632e-05
-1.52754e-05
-4.56587e-06
1.70437e-05
8.26632e-05
-1.52754e-05
-8.42716e-06
1.65224e-05
7.97609e-05
-1.48177e-05
-1.09851e-05
1.54856e-05
7.40336e-05
-1.39146e-05
-1.18522e-05
1.39502e-05
6.57001e-05
-1.26014e-05
1.18522e-05
5.51369e-05
-1.08692e-05
-1.08692e-05
1.39502e-05
1.09851e-05
6.57001e-05
-1.26014e-05
1.29802e-05
1.29802e-05
7.76868e-05
9.93513e-06
1.44213e-05
8.64842e-05
5.36756e-06
1.53679e-05
9.22317e-05
1.03238e-12
1.58368e-05
9.50605e-05
-5.36756e-06
1.58368e-05
9.50605e-05
-9.93512e-06
1.53679e-05
9.22317e-05
-1.29802e-05
1.44213e-05
8.64842e-05
-1.39502e-05
1.29802e-05
7.76868e-05
1.09851e-05
6.57001e-05
-1.26014e-05
1.54856e-05
8.42716e-06
7.40336e-05
-1.39146e-05
1.44213e-05
9.93513e-06
8.64842e-05
1.10262e-05
1.10262e-05
9.53139e-05
5.9491e-06
1.17311e-05
0.000100894
-4.12594e-12
1.20766e-05
0.000103578
-5.9491e-06
1.20766e-05
0.000103578
-1.10262e-05
1.17311e-05
0.000100894
-1.44213e-05
1.10262e-05
9.53139e-05
-1.54856e-05
9.93512e-06
8.64842e-05
8.42716e-06
7.40336e-05
-1.39146e-05
1.65224e-05
4.56587e-06
7.97609e-05
-1.48177e-05
1.53679e-05
5.36756e-06
9.22317e-05
1.17311e-05
5.9491e-06
0.000100894
6.32131e-06
6.32131e-06
0.000106251
-6.07013e-12
6.50261e-06
0.000108787
-6.32132e-06
6.50262e-06
0.000108787
-1.17311e-05
6.32132e-06
0.000106251
-1.53679e-05
5.9491e-06
0.000100894
-1.65224e-05
5.36756e-06
9.22317e-05
4.56586e-06
7.97609e-05
-1.48177e-05
1.70437e-05
1.60445e-12
8.26632e-05
-1.52754e-05
1.58368e-05
1.14639e-12
9.50605e-05
1.20766e-05
-2.28112e-12
0.000103578
6.50261e-06
-4.99956e-12
0.000108787
-1.41058e-12
-3.04356e-12
0.000111231
-6.50262e-06
3.2252e-12
0.000111231
-1.20766e-05
8.98416e-12
0.000108787
-1.58368e-05
8.76435e-12
0.000103578
-1.70437e-05
2.3987e-12
9.50605e-05
-5.07887e-12
8.26632e-05
-1.52754e-05
1.70437e-05
-4.56587e-06
8.26632e-05
-1.52754e-05
1.58368e-05
-5.36756e-06
9.50605e-05
1.20766e-05
-5.9491e-06
0.000103578
6.50262e-06
-6.32131e-06
0.000108787
4.92722e-12
-6.50262e-06
0.000111231
-6.50261e-06
-6.50261e-06
0.000111231
-1.20766e-05
-6.32131e-06
0.000108787
-1.58368e-05
-5.9491e-06
0.000103578
-1.70437e-05
-5.36755e-06
9.50605e-05
-4.56587e-06
8.26632e-05
-1.52754e-05
1.65224e-05
-8.42716e-06
7.97609e-05
-1.48177e-05
1.53679e-05
-9.93513e-06
9.22317e-05
1.17311e-05
-1.10262e-05
0.000100894
6.32131e-06
-1.17311e-05
0.000106251
6.42776e-12
-1.20766e-05
0.000108787
-6.32131e-06
-1.20766e-05
0.000108787
-1.17311e-05
-1.17311e-05
0.000106251
-1.53679e-05
-1.10262e-05
0.000100894
-1.65224e-05
-9.93513e-06
9.22317e-05
-8.42715e-06
7.97609e-05
-1.48177e-05
1.54856e-05
-1.09851e-05
7.40336e-05
-1.39146e-05
1.44213e-05
-1.29802e-05
8.64842e-05
1.10262e-05
-1.44213e-05
9.53139e-05
5.9491e-06
-1.53679e-05
0.000100894
2.33882e-12
-1.58368e-05
0.000103578
-5.9491e-06
-1.58368e-05
0.000103578
-1.10262e-05
-1.53679e-05
0.000100894
-1.44213e-05
-1.44213e-05
9.53139e-05
-1.54856e-05
-1.29802e-05
8.64842e-05
-1.09851e-05
7.40336e-05
-1.39146e-05
1.39502e-05
-1.18522e-05
6.57001e-05
-1.26014e-05
1.29802e-05
-1.39502e-05
7.76868e-05
9.93513e-06
-1.54856e-05
8.64842e-05
5.36756e-06
-1.65224e-05
9.22317e-05
-1.84086e-12
-1.70437e-05
9.50605e-05
-5.36756e-06
-1.70437e-05
9.50605e-05
-9.93513e-06
-1.65224e-05
9.22317e-05
-1.29802e-05
-1.54856e-05
8.64842e-05
-1.39502e-05
-1.39502e-05
7.76868e-05
-1.18522e-05
6.57001e-05
-1.26014e-05
1.18522e-05
5.51369e-05
-1.08692e-05
-1.08692e-05
1.09851e-05
6.57001e-05
-1.26014e-05
8.42716e-06
7.40336e-05
-1.39146e-05
4.56587e-06
7.97609e-05
-1.48177e-05
-1.65747e-12
8.26632e-05
-1.52754e-05
-4.56587e-06
8.26632e-05
-1.52754e-05
-8.42716e-06
7.97609e-05
-1.48177e-05
-1.09851e-05
7.40336e-05
-1.39146e-05
-1.18522e-05
6.57001e-05
-1.26014e-05
5.51369e-05
-1.08692e-05
-1.08692e-05
5.85838e-06
5.85838e-06
5.3741e-05
-5.16041e-06
-5.16041e-06
5.63822e-06
7.24205e-06
6.48777e-05
-6.19951e-06
4.44885e-06
8.3477e-06
7.39322e-05
-7.05695e-06
2.4527e-06
9.13427e-06
8.02948e-05
-7.67206e-06
1.10942e-12
9.54161e-06
8.35654e-05
-7.9911e-06
-2.45269e-06
9.54161e-06
8.35654e-05
-7.9911e-06
-4.44884e-06
9.13427e-06
8.02948e-05
-7.67206e-06
-5.63822e-06
8.3477e-06
7.39322e-05
-7.05695e-06
-5.85838e-06
7.24206e-06
6.48777e-05
-6.19952e-06
5.85839e-06
5.3741e-05
-5.16041e-06
-5.16041e-06
7.24205e-06
5.63822e-06
6.48777e-05
-6.19951e-06
7.05557e-06
7.05557e-06
7.80598e-05
5.5828e-06
8.17671e-06
8.81279e-05
3.0774e-06
8.95779e-06
9.49136e-05
-1.62983e-12
9.35826e-06
9.83213e-05
-3.0774e-06
9.35826e-06
9.83213e-05
-5.5828e-06
8.95779e-06
9.49136e-05
-7.05556e-06
8.1767e-06
8.81279e-05
-7.24205e-06
7.05556e-06
7.80598e-05
5.63822e-06
6.48777e-05
-6.19952e-06
8.34769e-06
4.44885e-06
7.39322e-05
-7.05695e-06
8.17671e-06
5.5828e-06
8.81279e-05
6.48255e-06
6.48254e-06
9.87023e-05
3.5746e-06
7.10176e-06
0.000105658
-5.79117e-12
7.41693e-06
0.000109094
-3.5746e-06
7.41693e-06
0.000109094
-6.48254e-06
7.10176e-06
0.000105658
-8.1767e-06
6.48254e-06
9.87023e-05
-8.34769e-06
5.58279e-06
8.81279e-05
4.44884e-06
7.39322e-05
-7.05695e-06
9.13427e-06
2.4527e-06
8.02948e-05
-7.67206e-06
8.95779e-06
3.0774e-06
9.49136e-05
7.10177e-06
3.5746e-06
0.000105658
3.91464e-06
3.91464e-06
0.000112625
-4.68578e-12
4.08698e-06
0.000116031
-3.91465e-06
4.08699e-06
0.000116031
-7.10177e-06
3.91465e-06
0.000112625
-8.95779e-06
3.57461e-06
0.000105658
-9.13426e-06
3.0774e-06
9.49136e-05
2.45269e-06
8.02948e-05
-7.67206e-06
9.54161e-06
1.51532e-12
8.35654e-05
-7.9911e-06
9.35826e-06
2.78331e-12
9.83213e-05
7.41692e-06
-4.92766e-13
0.000109094
4.08699e-06
-5.21043e-12
0.000116031
2.14687e-12
-5.98863e-12
0.000119405
-4.08699e-06
-6.32934e-13
0.000119405
-7.41693e-06
6.92541e-12
0.000116031
-9.35826e-06
9.99028e-12
0.000109094
-9.54161e-06
6.01092e-12
9.83213e-05
-1.05035e-12
8.35654e-05
-7.99109e-06
9.54161e-06
-2.4527e-06
8.35654e-05
-7.9911e-06
9.35826e-06
-3.0774e-06
9.83213e-05
7.41692e-06
-3.5746e-06
0.000109094
4.08699e-06
-3.91464e-06
0.000116031
7.41165e-12
-4.08699e-06
0.000119405
-4.08698e-06
-4.08699e-06
0.000119405
-7.41692e-06
-3.91464e-06
0.000116031
-9.35827e-06
-3.5746e-06
0.000109094
-9.54162e-06
-3.07739e-06
9.83213e-05
-2.45269e-06
8.35654e-05
-7.9911e-06
9.13427e-06
-4.44885e-06
8.02948e-05
-7.67206e-06
8.95779e-06
-5.5828e-06
9.49136e-05
7.10176e-06
-6.48254e-06
0.000105658
3.91464e-06
-7.10176e-06
0.000112625
6.10225e-12
-7.41692e-06
0.000116031
-3.91463e-06
-7.41692e-06
0.000116031
-7.10176e-06
-7.10177e-06
0.000112625
-8.95779e-06
-6.48255e-06
0.000105658
-9.13427e-06
-5.5828e-06
9.49136e-05
-4.44884e-06
8.02948e-05
-7.67206e-06
8.3477e-06
-5.63822e-06
7.39322e-05
-7.05695e-06
8.17671e-06
-7.05557e-06
8.81279e-05
6.48254e-06
-8.17671e-06
9.87023e-05
3.5746e-06
-8.95779e-06
0.000105658
2.13274e-13
-9.35825e-06
0.000109094
-3.5746e-06
-9.35826e-06
0.000109094
-6.48254e-06
-8.95779e-06
0.000105658
-8.17671e-06
-8.17672e-06
9.87023e-05
-8.3477e-06
-7.05557e-06
8.81279e-05
-5.63822e-06
7.39322e-05
-7.05695e-06
7.24205e-06
-5.85838e-06
6.48777e-05
-6.19951e-06
7.05557e-06
-7.24205e-06
7.80598e-05
5.5828e-06
-8.3477e-06
8.81279e-05
3.0774e-06
-9.13427e-06
9.49136e-05
-3.53158e-12
-9.54161e-06
9.83213e-05
-3.0774e-06
-9.54161e-06
9.83213e-05
-5.5828e-06
-9.13427e-06
9.49136e-05
-7.05557e-06
-8.34769e-06
8.81279e-05
-7.24205e-06
-7.24205e-06
7.80598e-05
-5.85838e-06
6.48777e-05
-6.19951e-06
5.85838e-06
5.3741e-05
-5.16041e-06
-5.16041e-06
5.63822e-06
6.48777e-05
-6.19951e-06
4.44885e-06
7.39322e-05
-7.05695e-06
2.4527e-06
8.02948e-05
-7.67206e-06
-1.96067e-12
8.35654e-05
-7.9911e-06
-2.4527e-06
8.35654e-05
-7.9911e-06
-4.44885e-06
8.02948e-05
-7.67206e-06
-5.63822e-06
7.39322e-05
-7.05694e-06
-5.85838e-06
6.48777e-05
-6.19951e-06
5.3741e-05
-5.16041e-06
-5.16041e-06
3.13766e-06
3.13766e-06
5.28085e-05
-2.6714e-06
-2.6714e-06
3.08996e-06
3.94009e-06
6.42305e-05
-3.24517e-06
2.47979e-06
4.60195e-06
7.36666e-05
-3.72623e-06
1.3813e-06
5.08601e-06
8.03851e-05
-4.07785e-06
-5.62618e-14
5.34119e-06
8.38681e-05
-4.26264e-06
-1.3813e-06
5.34119e-06
8.38681e-05
-4.26264e-06
-2.47978e-06
5.086e-06
8.03851e-05
-4.07785e-06
-3.08996e-06
4.60195e-06
7.36666e-05
-3.72623e-06
-3.13766e-06
3.9401e-06
6.42305e-05
-3.24517e-06
3.13766e-06
5.28085e-05
-2.6714e-06
-2.6714e-06
3.94009e-06
3.08995e-06
6.42305e-05
-3.24517e-06
3.94927e-06
3.94927e-06
7.80414e-05
3.19025e-06
4.65769e-06
8.88312e-05
1.78081e-06
5.16767e-06
9.62414e-05
-2.41926e-12
5.43451e-06
0.000100009
-1.78082e-06
5.43451e-06
0.000100009
-3.19024e-06
5.16767e-06
9.62414e-05
-3.94927e-06
4.65769e-06
8.88312e-05
-3.94009e-06
3.94927e-06
7.80414e-05
3.08996e-06
6.42305e-05
-3.24517e-06
4.60195e-06
2.47979e-06
7.36666e-05
-3.72623e-06
4.65769e-06
3.19025e-06
8.88312e-05
3.78144e-06
3.78144e-06
0.000100455
2.11545e-06
4.20347e-06
0.000108288
-3.59286e-12
4.4231e-06
0.000112221
-2.11545e-06
4.4231e-06
0.000112221
-3.78144e-06
4.20347e-06
0.000108288
-4.65769e-06
3.78144e-06
0.000100455
-4.60195e-06
3.19024e-06
8.88312e-05
2.47978e-06
7.36666e-05
-3.72623e-06
5.08601e-06
1.3813e-06
8.03851e-05
-4.07785e-06
5.16767e-06
1.78082e-06
9.62414e-05
4.20347e-06
2.11545e-06
0.000108288
2.35339e-06
2.35338e-06
0.000116326
-6.28415e-13
2.47683e-06
0.000120331
-2.35339e-06
2.47684e-06
0.000120331
-4.20347e-06
2.35339e-06
0.000116326
-5.16767e-06
2.11546e-06
0.000108288
-5.086e-06
1.78082e-06
9.62414e-05
1.3813e-06
8.03851e-05
-4.07785e-06
5.34119e-06
6.9637e-13
8.38681e-05
-4.26265e-06
5.43451e-06
3.12716e-12
0.000100009
4.4231e-06
2.14023e-12
0.000112221
2.47684e-06
-1.90429e-12
0.000120331
4.31636e-12
-5.01215e-12
0.000124358
-2.47684e-06
-3.48045e-12
0.000124358
-4.4231e-06
1.743e-12
0.000120331
-5.43451e-06
5.80424e-12
0.000112221
-5.34119e-06
5.29934e-12
0.000100009
1.81981e-12
8.38681e-05
-4.26264e-06
5.34119e-06
-1.3813e-06
8.38681e-05
-4.26265e-06
5.43451e-06
-1.78081e-06
0.000100009
4.42309e-06
-2.11545e-06
0.000112221
2.47684e-06
-2.35338e-06
0.000120331
5.83094e-12
-2.47684e-06
0.000124358
-2.47683e-06
-2.47684e-06
0.000124358
-4.4231e-06
-2.35339e-06
0.000120331
-5.43451e-06
-2.11545e-06
0.000112221
-5.34119e-06
-1.78081e-06
0.000100009
-1.38129e-06
8.38681e-05
-4.26265e-06
5.08601e-06
-2.47979e-06
8.03851e-05
-4.07785e-06
5.16767e-06
-3.19025e-06
9.62414e-05
4.20346e-06
-3.78144e-06
0.000108288
2.35338e-06
-4.20346e-06
0.000116326
2.36783e-12
-4.42309e-06
0.000120331
-2.35338e-06
-4.4231e-06
0.000120331
-4.20346e-06
-4.20347e-06
0.000116326
-5.16767e-06
-3.78144e-06
0.000108288
-5.08601e-06
-3.19025e-06
9.62414e-05
-2.47978e-06
8.03851e-05
-4.07785e-06
4.60196e-06
-3.08996e-06
7.36666e-05
-3.72623e-06
4.65769e-06
-3.94927e-06
8.88312e-05
3.78144e-06
-4.65769e-06
0.000100455
2.11545e-06
-5.16767e-06
0.000108288
-2.27388e-12
-5.43451e-06
0.000112221
-2.11545e-06
-5.43451e-06
0.000112221
-3.78144e-06
-5.16767e-06
0.000108288
-4.65769e-06
-4.65769e-06
0.000100455
-4.60195e-06
-3.94927e-06
8.88312e-05
-3.08996e-06
7.36666e-05
-3.72623e-06
3.94009e-06
-3.13766e-06
6.42305e-05
-3.24517e-06
3.94927e-06
-3.9401e-06
7.80414e-05
3.19025e-06
-4.60196e-06
8.88312e-05
1.78081e-06
-5.08601e-06
9.62414e-05
-3.38031e-12
-5.34119e-06
0.000100009
-1.78082e-06
-5.34119e-06
0.000100009
-3.19025e-06
-5.086e-06
9.62414e-05
-3.94927e-06
-4.60195e-06
8.88312e-05
-3.94009e-06
-3.94009e-06
7.80414e-05
-3.13766e-06
6.42305e-05
-3.24517e-06
3.13766e-06
5.28085e-05
-2.67139e-06
-2.67139e-06
3.08996e-06
6.42305e-05
-3.24517e-06
2.47979e-06
7.36666e-05
-3.72623e-06
1.3813e-06
8.03851e-05
-4.07785e-06
-9.5067e-13
8.38681e-05
-4.26265e-06
-1.3813e-06
8.38681e-05
-4.26265e-06
-2.47979e-06
8.03851e-05
-4.07785e-06
-3.08995e-06
7.36666e-05
-3.72623e-06
-3.13766e-06
6.42305e-05
-3.24517e-06
5.28085e-05
-2.6714e-06
-2.6714e-06
1.64166e-06
1.64166e-06
5.2289e-05
-1.38191e-06
-1.38191e-06
1.63975e-06
2.09453e-06
6.38333e-05
-1.69546e-06
1.33154e-06
2.4802e-06
7.34599e-05
-1.9652e-06
7.47437e-07
2.76794e-06
8.03662e-05
-2.16495e-06
-4.2094e-13
2.92141e-06
8.39649e-05
-2.2707e-06
-7.47437e-07
2.92141e-06
8.39649e-05
-2.2707e-06
-1.33154e-06
2.76794e-06
8.03662e-05
-2.16495e-06
-1.63975e-06
2.4802e-06
7.34599e-05
-1.9652e-06
-1.64166e-06
2.09453e-06
6.38333e-05
-1.69546e-06
1.64166e-06
5.2289e-05
-1.38191e-06
-1.38191e-06
2.09453e-06
1.63975e-06
6.38333e-05
-1.69546e-06
2.13832e-06
2.13831e-06
7.79538e-05
1.75299e-06
2.56462e-06
8.91321e-05
9.8781e-07
2.87924e-06
9.68953e-05
-1.58707e-12
3.0463e-06
0.000100872
-9.87811e-07
3.0463e-06
0.000100872
-1.75299e-06
2.87924e-06
9.68953e-05
-2.13831e-06
2.56462e-06
8.91321e-05
-2.09453e-06
2.13831e-06
7.79538e-05
1.63975e-06
6.38333e-05
-1.69546e-06
2.4802e-06
1.33154e-06
7.34599e-05
-1.9652e-06
2.56462e-06
1.75299e-06
8.91321e-05
2.11768e-06
2.11768e-06
0.000101349
1.19747e-06
2.38542e-06
0.000109702
-5.97883e-13
2.5271e-06
0.000113937
-1.19747e-06
2.52711e-06
0.000113937
-2.11768e-06
2.38542e-06
0.000109702
-2.56462e-06
2.11768e-06
0.000101349
-2.4802e-06
1.75299e-06
8.91321e-05
1.33154e-06
7.34599e-05
-1.9652e-06
2.76794e-06
7.47439e-07
8.03662e-05
-2.16495e-06
2.87924e-06
9.87812e-07
9.68953e-05
2.38542e-06
1.19747e-06
0.000109702
1.35106e-06
1.35106e-06
0.000118394
2.0948e-12
1.43219e-06
0.000122777
-1.35106e-06
1.43219e-06
0.000122777
-2.38542e-06
1.35106e-06
0.000118394
-2.87924e-06
1.19747e-06
0.000109702
-2.76794e-06
9.87812e-07
9.68953e-05
7.47438e-07
8.03662e-05
-2.16495e-06
2.92141e-06
-1.05808e-13
8.39649e-05
-2.2707e-06
3.04629e-06
2.0925e-12
0.000100872
2.5271e-06
3.18268e-12
0.000113937
1.43219e-06
1.37352e-12
0.000122777
3.76775e-12
-1.93349e-12
0.000127223
-1.43219e-06
-3.38395e-12
0.000127223
-2.52711e-06
-1.70408e-12
0.000122777
-3.0463e-06
1.15214e-12
0.000113937
-2.92141e-06
2.48652e-12
0.000100872
1.93868e-12
8.39649e-05
-2.2707e-06
2.92141e-06
-7.47439e-07
8.39649e-05
-2.2707e-06
3.0463e-06
-9.8781e-07
0.000100872
2.5271e-06
-1.19747e-06
0.000113937
1.43219e-06
-1.35106e-06
0.000122777
2.30502e-12
-1.43219e-06
0.000127223
-1.43219e-06
-1.43219e-06
0.000127223
-2.5271e-06
-1.35106e-06
0.000122777
-3.0463e-06
-1.19747e-06
0.000113937
-2.92141e-06
-9.8781e-07
0.000100872
-7.47437e-07
8.39649e-05
-2.2707e-06
2.76794e-06
-1.33154e-06
8.03662e-05
-2.16495e-06
2.87924e-06
-1.75299e-06
9.68953e-05
2.38542e-06
-2.11768e-06
0.000109702
1.35106e-06
-2.38542e-06
0.000118394
-1.1168e-12
-2.5271e-06
0.000122777
-1.35106e-06
-2.5271e-06
0.000122777
-2.38542e-06
-2.38542e-06
0.000118394
-2.87924e-06
-2.11768e-06
0.000109702
-2.76794e-06
-1.75299e-06
9.68953e-05
-1.33154e-06
8.03662e-05
-2.16495e-06
2.4802e-06
-1.63975e-06
7.34599e-05
-1.9652e-06
2.56463e-06
-2.13832e-06
8.91321e-05
2.11768e-06
-2.56462e-06
0.000101349
1.19747e-06
-2.87924e-06
0.000109702
-3.05639e-12
-3.0463e-06
0.000113937
-1.19747e-06
-3.04629e-06
0.000113937
-2.11768e-06
-2.87924e-06
0.000109702
-2.56462e-06
-2.56462e-06
0.000101349
-2.4802e-06
-2.13832e-06
8.91321e-05
-1.63975e-06
7.34599e-05
-1.9652e-06
2.09453e-06
-1.64166e-06
6.38333e-05
-1.69546e-06
2.13832e-06
-2.09453e-06
7.79538e-05
1.75299e-06
-2.4802e-06
8.91321e-05
9.87811e-07
-2.76794e-06
9.68953e-05
-1.91243e-12
-2.92141e-06
0.000100872
-9.87812e-07
-2.92141e-06
0.000100872
-1.75299e-06
-2.76794e-06
9.68953e-05
-2.13831e-06
-2.4802e-06
8.91321e-05
-2.09453e-06
-2.09453e-06
7.79538e-05
-1.64166e-06
6.38333e-05
-1.69546e-06
1.64166e-06
5.2289e-05
-1.38191e-06
-1.38191e-06
1.63975e-06
6.38333e-05
-1.69546e-06
1.33155e-06
7.34599e-05
-1.9652e-06
7.4744e-07
8.03662e-05
-2.16495e-06
2.31944e-13
8.39649e-05
-2.2707e-06
-7.47439e-07
8.39649e-05
-2.2707e-06
-1.33154e-06
8.03662e-05
-2.16495e-06
-1.63975e-06
7.34599e-05
-1.9652e-06
-1.64166e-06
6.38333e-05
-1.69546e-06
5.2289e-05
-1.38191e-06
-1.38191e-06
9.09064e-07
9.09064e-07
5.19879e-05
-7.58537e-07
-7.58538e-07
9.14148e-07
1.16313e-06
6.35971e-05
-9.31953e-07
7.46515e-07
1.38216e-06
7.33271e-05
-1.0818e-06
4.20597e-07
1.5474e-06
8.03382e-05
-1.19341e-06
-3.34621e-13
1.63617e-06
8.4002e-05
-1.25273e-06
-4.20597e-07
1.63617e-06
8.4002e-05
-1.25273e-06
-7.46515e-07
1.5474e-06
8.03382e-05
-1.19341e-06
-9.14147e-07
1.38216e-06
7.33271e-05
-1.0818e-06
-9.09064e-07
1.16313e-06
6.35971e-05
-9.31953e-07
9.09063e-07
5.19879e-05
-7.58538e-07
-7.58538e-07
1.16313e-06
9.14148e-07
6.35971e-05
-9.31953e-07
1.19819e-06
1.19819e-06
7.78837e-05
9.89675e-07
1.44541e-06
8.92774e-05
5.60451e-07
1.63059e-06
9.72413e-05
-6.25485e-13
1.72985e-06
0.000101338
-5.60452e-07
1.72985e-06
0.000101338
-9.89675e-07
1.6306e-06
9.72413e-05
-1.19819e-06
1.44542e-06
8.92774e-05
-1.16313e-06
1.19819e-06
7.78837e-05
9.14147e-07
6.35971e-05
-9.31952e-07
1.38216e-06
7.46516e-07
7.33271e-05
-1.0818e-06
1.44541e-06
9.89675e-07
8.92774e-05
1.20468e-06
1.20468e-06
0.00010183
6.8537e-07
1.36532e-06
0.000110487
5.24719e-13
1.45128e-06
0.000114901
-6.85369e-07
1.45128e-06
0.000114901
-1.20468e-06
1.36533e-06
0.000110487
-1.44542e-06
1.20468e-06
0.00010183
-1.38216e-06
9.89675e-07
8.92774e-05
7.46515e-07
7.33271e-05
-1.0818e-06
1.5474e-06
4.20598e-07
8.03382e-05
-1.19341e-06
1.63059e-06
5.60452e-07
9.72413e-05
1.36532e-06
6.85369e-07
0.000110487
7.7866e-07
7.78658e-07
0.000119568
1.95719e-12
8.28533e-07
0.000124178
-7.78658e-07
8.28533e-07
0.000124178
-1.36532e-06
7.78658e-07
0.000119568
-1.63059e-06
6.8537e-07
0.000110487
-1.5474e-06
5.60452e-07
9.72413e-05
4.20599e-07
8.03382e-05
-1.19341e-06
1.63617e-06
-1.82647e-13
8.4002e-05
-1.25273e-06
1.72985e-06
8.86016e-13
0.000101338
1.45128e-06
2.19812e-12
0.000114901
8.28534e-07
1.92996e-12
0.000124178
1.95959e-12
-4.29594e-14
0.00012888
-8.28533e-07
-1.82377e-12
0.00012888
-1.45128e-06
-1.87875e-12
0.000124178
-1.72985e-06
-5.33185e-13
0.000114901
-1.63617e-06
6.63758e-13
0.000101338
9.29977e-13
8.4002e-05
-1.25273e-06
1.63617e-06
-4.20598e-07
8.4002e-05
-1.25273e-06
1.72985e-06
-5.60451e-07
0.000101338
1.45128e-06
-6.85367e-07
0.000114901
8.28533e-07
-7.78656e-07
0.000124178
1.78273e-13
-8.28532e-07
0.00012888
-8.28533e-07
-8.28534e-07
0.00012888
-1.45128e-06
-7.7866e-07
0.000124178
-1.72985e-06
-6.8537e-07
0.000114901
-1.63617e-06
-5.60451e-07
0.000101338
-4.20597e-07
8.4002e-05
-1.25273e-06
1.5474e-06
-7.46516e-07
8.03382e-05
-1.19341e-06
1.6306e-06
-9.89676e-07
9.72413e-05
1.36532e-06
-1.20468e-06
0.000110487
7.78656e-07
-1.36532e-06
0.000119568
-1.82633e-12
-1.45128e-06
0.000124178
-7.78658e-07
-1.45128e-06
0.000124178
-1.36532e-06
-1.36532e-06
0.000119568
-1.63059e-06
-1.20468e-06
0.000110487
-1.5474e-06
-9.89674e-07
9.72413e-05
-7.46516e-07
8.03382e-05
-1.19341e-06
1.38217e-06
-9.14146e-07
7.33271e-05
-1.0818e-06
1.44542e-06
-1.19819e-06
8.92774e-05
1.20468e-06
-1.44542e-06
0.00010183
6.85367e-07
-1.63059e-06
0.000110487
-2.09138e-12
-1.72985e-06
0.000114901
-6.85369e-07
-1.72985e-06
0.000114901
-1.20468e-06
-1.63059e-06
0.000110487
-1.44541e-06
-1.44541e-06
0.00010183
-1.38216e-06
-1.19819e-06
8.92774e-05
-9.14147e-07
7.33271e-05
-1.0818e-06
1.16313e-06
-9.09062e-07
6.35971e-05
-9.31952e-07
1.19819e-06
-1.16313e-06
7.78837e-05
9.89676e-07
-1.38217e-06
8.92774e-05
5.60452e-07
-1.5474e-06
9.72413e-05
-6.55957e-13
-1.63617e-06
0.000101338
-5.60452e-07
-1.63617e-06
0.000101338
-9.89674e-07
-1.5474e-06
9.72413e-05
-1.19819e-06
-1.38216e-06
8.92774e-05
-1.16313e-06
-1.16313e-06
7.78837e-05
-9.09063e-07
6.35971e-05
-9.31953e-07
9.09062e-07
5.19879e-05
-7.58537e-07
-7.58537e-07
9.14147e-07
6.35971e-05
-9.31951e-07
7.46516e-07
7.33271e-05
-1.0818e-06
4.20599e-07
8.03382e-05
-1.19341e-06
6.20854e-13
8.4002e-05
-1.25273e-06
-4.20598e-07
8.4002e-05
-1.25273e-06
-7.46516e-07
8.03382e-05
-1.19341e-06
-9.14147e-07
7.33271e-05
-1.0818e-06
-9.09064e-07
6.35971e-05
-9.31953e-07
5.19879e-05
-7.58538e-07
-7.58537e-07
5.05602e-07
5.05602e-07
5.18187e-05
-4.21012e-07
-4.21012e-07
5.10415e-07
6.49445e-07
6.34612e-05
-5.18368e-07
4.18342e-07
7.74705e-07
7.32476e-05
-6.0309e-07
2.363e-07
8.69841e-07
8.03168e-05
-6.66421e-07
-6.30275e-14
9.21162e-07
8.40173e-05
-7.00153e-07
-2.36301e-07
9.21162e-07
8.40173e-05
-7.00153e-07
-4.18342e-07
8.69841e-07
8.03168e-05
-6.66421e-07
-5.10415e-07
7.74705e-07
7.32476e-05
-6.0309e-07
-5.05602e-07
6.49445e-07
6.34612e-05
-5.18368e-07
5.05602e-07
5.18187e-05
-4.21012e-07
-4.21012e-07
6.49445e-07
5.10415e-07
6.34612e-05
-5.18368e-07
6.72618e-07
6.72618e-07
7.78374e-05
5.58269e-07
8.15592e-07
8.93509e-05
3.172e-07
9.23699e-07
9.74285e-05
-1.06178e-13
9.81988e-07
0.000101595
-3.172e-07
9.81988e-07
0.000101595
-5.58269e-07
9.23699e-07
9.74285e-05
-6.72618e-07
8.15592e-07
8.93509e-05
-6.49445e-07
6.72618e-07
7.78374e-05
5.10415e-07
6.34612e-05
-5.18368e-07
7.74705e-07
4.18342e-07
7.32476e-05
-6.0309e-07
8.15592e-07
5.58269e-07
8.93509e-05
6.838e-07
6.838e-07
0.000102094
3.906e-07
7.78673e-07
0.000110925
6.52387e-14
8.29804e-07
0.000115444
-3.906e-07
8.29804e-07
0.000115444
-6.838e-07
7.78673e-07
0.000110925
-8.15592e-07
6.83801e-07
0.000102094
-7.74705e-07
5.58269e-07
8.93509e-05
4.18342e-07
7.32476e-05
-6.0309e-07
8.69841e-07
2.36301e-07
8.03168e-05
-6.66421e-07
9.23698e-07
3.172e-07
9.74285e-05
7.78672e-07
3.906e-07
0.000110925
4.46114e-07
4.46114e-07
0.000120233
3.81119e-13
4.76031e-07
0.000124978
-4.46114e-07
4.76031e-07
0.000124978
-7.78673e-07
4.46114e-07