/*--------------------------------*- C++ -*----------------------------------*\
| =========                 |                                                 |
| \\      /  F ield         | OpenFOAM: The Open Source CFD Toolbox           |
|  \\    /   O peration     | Version:  2412                                  |
|   \\  /    A nd           | Website:  www.openfoam.com                      |
|    \\/     M anipulation  |                                                 |
\*---------------------------------------------------------------------------*/
FoamFile
{
    version     2.0;
    format      ascii;
    arch        "LSB;label=32;scalar=64";
    class       surfaceScalarField;
    location    "5.6";
    object      phi;
}
// * * * * * * * * * * * * * * * * * * * * * * * * * * * * * * * * * * * * * //

dimensions      [0 3 -1 0 0 0 0];

oriented        oriented;

internalField   nonuniform List<scalar> 
43700
(
1.86556e-07
1.86556e-07
5.49765e-07
-2.2643e-07
-2.2643e-07
1.38237e-07
1.65895e-07
5.94183e-07
-2.02375e-07
9.16295e-08
1.52463e-07
6.25768e-07
-1.92194e-07
4.5484e-08
1.43446e-07
6.46027e-07
-1.83615e-07
-2.56827e-17
1.39087e-07
6.55968e-07
-1.79642e-07
-4.5484e-08
1.39087e-07
6.55968e-07
-1.79642e-07
-9.16295e-08
1.43446e-07
6.46027e-07
-1.83615e-07
-1.38237e-07
1.52463e-07
6.25768e-07
-1.92194e-07
-1.86556e-07
1.65895e-07
5.94183e-07
-2.02375e-07
1.86556e-07
5.49765e-07
-2.2643e-07
-2.2643e-07
1.65895e-07
1.38237e-07
5.94183e-07
-2.02375e-07
1.23439e-07
1.23439e-07
6.30755e-07
8.12922e-08
1.12071e-07
6.5623e-07
4.02299e-08
1.04429e-07
6.72576e-07
1.87909e-16
1.00675e-07
6.80614e-07
-4.02299e-08
1.00675e-07
6.80614e-07
-8.12922e-08
1.04429e-07
6.72576e-07
-1.23439e-07
1.12071e-07
6.5623e-07
-1.65895e-07
1.23439e-07
6.30755e-07
1.38237e-07
5.94183e-07
-2.02375e-07
1.52463e-07
9.16295e-08
6.25768e-07
-1.92194e-07
1.12071e-07
8.12922e-08
6.5623e-07
7.3254e-08
7.3254e-08
6.77507e-07
3.61197e-08
6.78479e-08
6.91278e-07
-1.98053e-17
6.51809e-08
6.98092e-07
-3.61197e-08
6.51809e-08
6.98092e-07
-7.3254e-08
6.78479e-08
6.91278e-07
-1.12071e-07
7.3254e-08
6.77507e-07
-1.52463e-07
8.12922e-08
6.5623e-07
9.16295e-08
6.25768e-07
-1.92194e-07
1.43446e-07
4.5484e-08
6.46027e-07
-1.83615e-07
1.04429e-07
4.02299e-08
6.72576e-07
6.78479e-08
3.61197e-08
6.91278e-07
3.33464e-08
3.33464e-08
7.03506e-07
-9.41697e-17
3.1975e-08
7.09594e-07
-3.33464e-08
3.1975e-08
7.09594e-07
-6.78479e-08
3.33464e-08
7.03506e-07
-1.04429e-07
3.61197e-08
6.91278e-07
-1.43446e-07
4.02299e-08
6.72576e-07
4.5484e-08
6.46027e-07
-1.83615e-07
1.39087e-07
-4.62673e-16
6.55968e-07
-1.79642e-07
1.00675e-07
9.5084e-17
6.80614e-07
6.51809e-08
6.31667e-17
6.98092e-07
3.1975e-08
-4.63197e-17
7.09594e-07
1.44373e-16
5.14777e-17
7.15343e-07
-3.1975e-08
-1.55741e-16
7.15343e-07
-6.51809e-08
-2.1342e-16
7.09594e-07
-1.00675e-07
-6.74819e-17
6.98092e-07
-1.39087e-07
-1.32505e-16
6.80614e-07
-2.51901e-16
6.55968e-07
-1.79642e-07
1.39087e-07
-4.5484e-08
6.55968e-07
-1.79642e-07
1.00675e-07
-4.02299e-08
6.80614e-07
6.51809e-08
-3.61197e-08
6.98092e-07
3.1975e-08
-3.33464e-08
7.09594e-07
-2.08512e-16
-3.1975e-08
7.15343e-07
-3.1975e-08
-3.1975e-08
7.15343e-07
-6.51809e-08
-3.33464e-08
7.09594e-07
-1.00675e-07
-3.61197e-08
6.98092e-07
-1.39087e-07
-4.02299e-08
6.80614e-07
-4.5484e-08
6.55968e-07
-1.79642e-07
1.43446e-07
-9.16295e-08
6.46027e-07
-1.83615e-07
1.04429e-07
-8.12922e-08
6.72576e-07
6.78479e-08
-7.3254e-08
6.91278e-07
3.33464e-08
-6.78479e-08
7.03506e-07
-7.52275e-18
-6.51809e-08
7.09594e-07
-3.33464e-08
-6.51809e-08
7.09594e-07
-6.78479e-08
-6.78479e-08
7.03506e-07
-1.04429e-07
-7.3254e-08
6.91278e-07
-1.43446e-07
-8.12922e-08
6.72576e-07
-9.16295e-08
6.46027e-07
-1.83615e-07
1.52463e-07
-1.38237e-07
6.25768e-07
-1.92194e-07
1.12071e-07
-1.23439e-07
6.5623e-07
7.3254e-08
-1.12071e-07
6.77507e-07
3.61197e-08
-1.04429e-07
6.91278e-07
1.07972e-16
-1.00675e-07
6.98092e-07
-3.61197e-08
-1.00675e-07
6.98092e-07
-7.3254e-08
-1.04429e-07
6.91278e-07
-1.12071e-07
-1.12071e-07
6.77507e-07
-1.52463e-07
-1.23439e-07
6.5623e-07
-1.38237e-07
6.25768e-07
-1.92194e-07
1.65895e-07
-1.86556e-07
5.94183e-07
-2.02375e-07
1.23439e-07
-1.65895e-07
6.30755e-07
8.12922e-08
-1.52463e-07
6.5623e-07
4.02299e-08
-1.43446e-07
6.72576e-07
1.22744e-16
-1.39087e-07
6.80614e-07
-4.02299e-08
-1.39087e-07
6.80614e-07
-8.12922e-08
-1.43446e-07
6.72576e-07
-1.23439e-07
-1.52463e-07
6.5623e-07
-1.65895e-07
-1.65895e-07
6.30755e-07
-1.86556e-07
5.94183e-07
-2.02375e-07
1.86556e-07
5.49765e-07
-2.2643e-07
-2.2643e-07
1.38237e-07
5.94183e-07
-2.02375e-07
9.16295e-08
6.25768e-07
-1.92194e-07
4.5484e-08
6.46027e-07
-1.83615e-07
2.2543e-17
6.55968e-07
-1.79642e-07
-4.5484e-08
6.55968e-07
-1.79642e-07
-9.16295e-08
6.46027e-07
-1.83615e-07
-1.38237e-07
6.25768e-07
-1.92194e-07
-1.86556e-07
5.94183e-07
-2.02375e-07
5.49765e-07
-2.2643e-07
-2.2643e-07
1.16877e-07
1.16877e-07
5.8497e-07
-1.34479e-07
-1.34479e-07
9.1687e-08
1.14367e-07
6.39178e-07
-1.34172e-07
6.26161e-08
1.11308e-07
6.76472e-07
-1.32941e-07
3.16272e-08
1.08556e-07
6.99614e-07
-1.31154e-07
-1.97781e-16
1.07174e-07
7.10726e-07
-1.30306e-07
-3.16272e-08
1.07174e-07
7.10726e-07
-1.30306e-07
-6.26161e-08
1.08556e-07
6.99614e-07
-1.31154e-07
-9.1687e-08
1.11308e-07
6.76472e-07
-1.32941e-07
-1.16877e-07
1.14367e-07
6.39178e-07
-1.34172e-07
1.16877e-07
5.8497e-07
-1.34479e-07
-1.34479e-07
1.14367e-07
9.1687e-08
6.39178e-07
-1.34172e-07
8.82953e-08
8.82953e-08
6.82897e-07
5.9664e-08
8.48681e-08
7.11302e-07
2.99746e-08
8.21971e-08
7.28625e-07
1.98787e-16
8.08488e-08
7.36914e-07
-2.99746e-08
8.08488e-08
7.36914e-07
-5.9664e-08
8.21971e-08
7.28625e-07
-8.82953e-08
8.48681e-08
7.11302e-07
-1.14367e-07
8.82953e-08
6.82897e-07
9.1687e-08
6.39178e-07
-1.34172e-07
1.11308e-07
6.26161e-08
6.76472e-07
-1.32941e-07
8.48681e-08
5.9664e-08
7.11302e-07
5.69156e-08
5.69156e-08
7.33412e-07
2.85037e-08
5.49155e-08
7.46971e-07
1.94406e-16
5.39137e-08
7.53531e-07
-2.85037e-08
5.39137e-08
7.53531e-07
-5.69156e-08
5.49155e-08
7.46971e-07
-8.48681e-08
5.69156e-08
7.33412e-07
-1.11308e-07
5.9664e-08
7.11302e-07
6.26161e-08
6.76472e-07
-1.32941e-07
1.08556e-07
3.16272e-08
6.99614e-07
-1.31154e-07
8.21971e-08
2.99746e-08
7.28625e-07
5.49155e-08
2.85037e-08
7.46971e-07
2.74623e-08
2.74623e-08
7.58412e-07
3.67037e-16
2.69426e-08
7.64028e-07
-2.74623e-08
2.69426e-08
7.64028e-07
-5.49155e-08
2.74623e-08
7.58412e-07
-8.21971e-08
2.85037e-08
7.46971e-07
-1.08556e-07
2.99746e-08
7.28625e-07
3.16272e-08
6.99614e-07
-1.31154e-07
1.07174e-07
1.95235e-17
7.10726e-07
-1.30306e-07
8.08488e-08
6.69416e-16
7.36914e-07
5.39137e-08
4.10793e-16
7.53531e-07
2.69426e-08
2.36341e-16
7.64028e-07
6.0169e-16
4.35394e-16
7.69228e-07
-2.69426e-08
5.28914e-16
7.69228e-07
-5.39137e-08
3.48005e-16
7.64028e-07
-8.08488e-08
3.9398e-17
7.53531e-07
-1.07174e-07
-2.10537e-16
7.36914e-07
-1.68637e-16
7.10726e-07
-1.30306e-07
1.07174e-07
-3.16272e-08
7.10726e-07
-1.30306e-07
8.08488e-08
-2.99746e-08
7.36914e-07
5.39137e-08
-2.85037e-08
7.53531e-07
2.69426e-08
-2.74623e-08
7.64028e-07
5.16083e-16
-2.69426e-08
7.69228e-07
-2.69426e-08
-2.69426e-08
7.69228e-07
-5.39137e-08
-2.74623e-08
7.64028e-07
-8.08488e-08
-2.85037e-08
7.53531e-07
-1.07174e-07
-2.99746e-08
7.36914e-07
-3.16272e-08
7.10726e-07
-1.30306e-07
1.08556e-07
-6.26161e-08
6.99614e-07
-1.31154e-07
8.21971e-08
-5.9664e-08
7.28625e-07
5.49155e-08
-5.69156e-08
7.46971e-07
2.74623e-08
-5.49155e-08
7.58412e-07
6.82128e-16
-5.39137e-08
7.64028e-07
-2.74623e-08
-5.39137e-08
7.64028e-07
-5.49155e-08
-5.49155e-08
7.58412e-07
-8.21971e-08
-5.69156e-08
7.46971e-07
-1.08556e-07
-5.9664e-08
7.28625e-07
-6.26161e-08
6.99614e-07
-1.31154e-07
1.11308e-07
-9.1687e-08
6.76472e-07
-1.32941e-07
8.48681e-08
-8.82953e-08
7.11302e-07
5.69156e-08
-8.48681e-08
7.33412e-07
2.85037e-08
-8.21971e-08
7.46971e-07
5.89394e-16
-8.08488e-08
7.53531e-07
-2.85037e-08
-8.08488e-08
7.53531e-07
-5.69156e-08
-8.21971e-08
7.46971e-07
-8.48681e-08
-8.48681e-08
7.33412e-07
-1.11308e-07
-8.82953e-08
7.11302e-07
-9.1687e-08
6.76472e-07
-1.32941e-07
1.14367e-07
-1.16877e-07
6.39178e-07
-1.34172e-07
8.82953e-08
-1.14367e-07
6.82897e-07
5.9664e-08
-1.11308e-07
7.11302e-07
2.99746e-08
-1.08556e-07
7.28625e-07
3.13922e-16
-1.07174e-07
7.36914e-07
-2.99746e-08
-1.07174e-07
7.36914e-07
-5.9664e-08
-1.08556e-07
7.28625e-07
-8.82953e-08
-1.11308e-07
7.11302e-07
-1.14367e-07
-1.14367e-07
6.82897e-07
-1.16877e-07
6.39178e-07
-1.34172e-07
1.16877e-07
5.8497e-07
-1.34479e-07
-1.34479e-07
9.1687e-08
6.39178e-07
-1.34172e-07
6.26161e-08
6.76472e-07
-1.32941e-07
3.16272e-08
6.99614e-07
-1.31154e-07
1.58516e-16
7.10726e-07
-1.30306e-07
-3.16272e-08
7.10726e-07
-1.30306e-07
-6.26161e-08
6.99614e-07
-1.31154e-07
-9.1687e-08
6.76472e-07
-1.32941e-07
-1.16877e-07
6.39178e-07
-1.34172e-07
5.8497e-07
-1.34479e-07
-1.34479e-07
7.86962e-08
7.86962e-08
5.94203e-07
-8.3313e-08
-8.3313e-08
6.58346e-08
8.28093e-08
6.5789e-07
-8.86598e-08
4.69159e-08
8.46278e-08
7.02009e-07
-9.12459e-08
2.4317e-08
8.51499e-08
7.29468e-07
-9.24052e-08
-8.53811e-16
8.53092e-08
7.4265e-07
-9.29156e-08
-2.4317e-08
8.53092e-08
7.4265e-07
-9.29156e-08
-4.69159e-08
8.51499e-08
7.29468e-07
-9.24052e-08
-6.58346e-08
8.46278e-08
7.02009e-07
-9.12459e-08
-7.86962e-08
8.28093e-08
6.5789e-07
-8.86598e-08
7.86962e-08
5.94203e-07
-8.3313e-08
-8.3313e-08
8.28093e-08
6.58346e-08
6.5789e-07
-8.86598e-08
6.8522e-08
6.8522e-08
7.11472e-07
4.85806e-08
6.95606e-08
7.46311e-07
2.51146e-08
6.97229e-08
7.67518e-07
1.384e-15
6.97003e-08
7.77638e-07
-2.51146e-08
6.97003e-08
7.77638e-07
-4.85806e-08
6.97229e-08
7.67518e-07
-6.8522e-08
6.95606e-08
7.46311e-07
-8.28093e-08
6.8522e-08
7.11472e-07
6.58346e-08
6.5789e-07
-8.86598e-08
8.46278e-08
4.69159e-08
7.02009e-07
-9.12459e-08
6.95606e-08
4.85806e-08
7.46311e-07
4.91226e-08
4.91226e-08
7.74288e-07
2.53547e-08
4.91338e-08
7.91328e-07
1.17619e-15
4.90596e-08
7.99526e-07
-2.53547e-08
4.90596e-08
7.99526e-07
-4.91226e-08
4.91338e-08
7.91328e-07
-6.95606e-08
4.91226e-08
7.74288e-07
-8.46278e-08
4.85806e-08
7.46311e-07
4.69159e-08
7.02009e-07
-9.12459e-08
8.51499e-08
2.4317e-08
7.29468e-07
-9.24052e-08
6.97229e-08
2.51146e-08
7.67518e-07
4.91338e-08
2.53547e-08
7.91328e-07
2.534e-08
2.534e-08
8.06e-07
1.04354e-15
2.52893e-08
8.13138e-07
-2.534e-08
2.52893e-08
8.13138e-07
-4.91338e-08
2.534e-08
8.06e-07
-6.97229e-08
2.53547e-08
7.91328e-07
-8.51499e-08
2.51146e-08
7.67518e-07
2.4317e-08
7.29468e-07
-9.24052e-08
8.53092e-08
-2.00544e-16
7.4265e-07
-9.29156e-08
6.97003e-08
2.10138e-15
7.77638e-07
4.90596e-08
1.62409e-15
7.99526e-07
2.52893e-08
1.25783e-15
8.13138e-07
9.29035e-16
1.19523e-15
8.19806e-07
-2.52893e-08
1.13215e-15
8.19806e-07
-4.90596e-08
7.02067e-16
8.13138e-07
-6.97003e-08
-1.12384e-16
7.99526e-07
-8.53092e-08
-1.59745e-15
7.77638e-07
-1.30125e-15
7.4265e-07
-9.29156e-08
8.53092e-08
-2.4317e-08
7.4265e-07
-9.29156e-08
6.97003e-08
-2.51146e-08
7.77638e-07
4.90596e-08
-2.53547e-08
7.99526e-07
2.52893e-08
-2.534e-08
8.13138e-07
7.65927e-16
-2.52893e-08
8.19806e-07
-2.52893e-08
-2.52893e-08
8.19806e-07
-4.90596e-08
-2.534e-08
8.13138e-07
-6.97003e-08
-2.53547e-08
7.99526e-07
-8.53092e-08
-2.51146e-08
7.77638e-07
-2.4317e-08
7.4265e-07
-9.29156e-08
8.51499e-08
-4.69159e-08
7.29468e-07
-9.24052e-08
6.97229e-08
-4.85806e-08
7.67518e-07
4.91338e-08
-4.91226e-08
7.91328e-07
2.534e-08
-4.91338e-08
8.06e-07
5.76601e-16
-4.90596e-08
8.13138e-07
-2.534e-08
-4.90596e-08
8.13138e-07
-4.91338e-08
-4.91338e-08
8.06e-07
-6.97229e-08
-4.91226e-08
7.91328e-07
-8.51499e-08
-4.85806e-08
7.67518e-07
-4.69159e-08
7.29468e-07
-9.24052e-08
8.46278e-08
-6.58346e-08
7.02009e-07
-9.12459e-08
6.95606e-08
-6.8522e-08
7.46311e-07
4.91226e-08
-6.95606e-08
7.74288e-07
2.53547e-08
-6.97229e-08
7.91328e-07
-2.70525e-17
-6.97003e-08
7.99526e-07
-2.53547e-08
-6.97003e-08
7.99526e-07
-4.91226e-08
-6.97229e-08
7.91328e-07
-6.95606e-08
-6.95606e-08
7.74288e-07
-8.46278e-08
-6.8522e-08
7.46311e-07
-6.58346e-08
7.02009e-07
-9.12459e-08
8.28093e-08
-7.86962e-08
6.5789e-07
-8.86598e-08
6.8522e-08
-8.28093e-08
7.11472e-07
4.85806e-08
-8.46278e-08
7.46311e-07
2.51146e-08
-8.51499e-08
7.67518e-07
-1.15366e-15
-8.53092e-08
7.77638e-07
-2.51146e-08
-8.53092e-08
7.77638e-07
-4.85806e-08
-8.51499e-08
7.67518e-07
-6.8522e-08
-8.46278e-08
7.46311e-07
-8.28093e-08
-8.28093e-08
7.11472e-07
-7.86962e-08
6.5789e-07
-8.86598e-08
7.86962e-08
5.94203e-07
-8.3313e-08
-8.3313e-08
6.58346e-08
6.5789e-07
-8.86598e-08
4.69159e-08
7.02009e-07
-9.12459e-08
2.4317e-08
7.29468e-07
-9.24052e-08
-9.49881e-16
7.4265e-07
-9.29156e-08
-2.4317e-08
7.4265e-07
-9.29156e-08
-4.69159e-08
7.29468e-07
-9.24052e-08
-6.58346e-08
7.02009e-07
-9.12459e-08
-7.86962e-08
6.5789e-07
-8.86598e-08
5.94203e-07
-8.3313e-08
-8.3313e-08
3.20638e-08
3.20638e-08
5.93337e-07
-3.16305e-08
-3.16305e-08
2.86638e-08
3.70662e-08
6.6085e-07
-3.66259e-08
2.13391e-08
4.03275e-08
7.08493e-07
-3.94877e-08
1.1364e-08
4.22326e-08
7.38559e-07
-4.13486e-08
-2.07987e-16
4.31296e-08
7.53105e-07
-4.22209e-08
-1.1364e-08
4.31297e-08
7.53105e-07
-4.22209e-08
-2.13391e-08
4.22326e-08
7.38559e-07
-4.13486e-08
-2.86638e-08
4.03275e-08
7.08493e-07
-3.94877e-08
-3.20638e-08
3.70662e-08
6.6085e-07
-3.66259e-08
3.20638e-08
5.93337e-07
-3.16305e-08
-3.16305e-08
3.70662e-08
2.86638e-08
6.6085e-07
-3.66259e-08
3.28167e-08
3.28167e-08
7.19971e-07
2.43862e-08
3.56342e-08
7.59434e-07
1.29613e-08
3.72646e-08
7.83911e-07
1.30727e-15
3.80164e-08
7.95713e-07
-1.29613e-08
3.80164e-08
7.95713e-07
-2.43862e-08
3.72646e-08
7.83911e-07
-3.28167e-08
3.56342e-08
7.59434e-07
-3.70662e-08
3.28166e-08
7.19971e-07
2.86638e-08
6.6085e-07
-3.66259e-08
4.03275e-08
2.13391e-08
7.08493e-07
-3.94877e-08
3.56342e-08
2.43862e-08
7.59434e-07
2.6422e-08
2.6422e-08
7.92713e-07
1.40253e-08
2.75894e-08
8.134e-07
1.2499e-15
2.81182e-08
8.2345e-07
-1.40253e-08
2.81182e-08
8.2345e-07
-2.6422e-08
2.75894e-08
8.134e-07
-3.56342e-08
2.6422e-08
7.92713e-07
-4.03275e-08
2.43862e-08
7.59434e-07
2.13391e-08
7.08493e-07
-3.94877e-08
4.22326e-08
1.1364e-08
7.38559e-07
-4.13486e-08
3.72646e-08
1.29613e-08
7.83911e-07
2.75894e-08
1.40253e-08
8.134e-07
1.46324e-08
1.46324e-08
8.31914e-07
1.02525e-15
1.49044e-08
8.40984e-07
-1.46324e-08
1.49044e-08
8.40984e-07
-2.75894e-08
1.46324e-08
8.31914e-07
-3.72646e-08
1.40253e-08
8.134e-07
-4.22326e-08
1.29613e-08
7.83911e-07
1.1364e-08
7.38559e-07
-4.13486e-08
4.31296e-08
7.12667e-16
7.53105e-07
-4.22209e-08
3.80164e-08
1.79764e-15
7.95713e-07
2.81182e-08
1.16533e-15
8.2345e-07
1.49044e-08
9.20483e-16
8.40984e-07
1.05062e-15
1.03152e-15
8.49615e-07
-1.49044e-08
1.26498e-15
8.49615e-07
-2.81182e-08
1.11259e-15
8.40984e-07
-3.80164e-08
3.47246e-16
8.2345e-07
-4.31297e-08
-1.78512e-15
7.95713e-07
-1.89602e-15
7.53105e-07
-4.22209e-08
4.31297e-08
-1.1364e-08
7.53105e-07
-4.22209e-08
3.80164e-08
-1.29613e-08
7.95713e-07
2.81182e-08
-1.40253e-08
8.2345e-07
1.49044e-08
-1.46324e-08
8.40984e-07
1.29609e-15
-1.49044e-08
8.49615e-07
-1.49044e-08
-1.49044e-08
8.49615e-07
-2.81182e-08
-1.46324e-08
8.40984e-07
-3.80164e-08
-1.40253e-08
8.2345e-07
-4.31296e-08
-1.29613e-08
7.95713e-07
-1.1364e-08
7.53105e-07
-4.22209e-08
4.22326e-08
-2.13391e-08
7.38559e-07
-4.13486e-08
3.72646e-08
-2.43862e-08
7.83911e-07
2.75894e-08
-2.6422e-08
8.134e-07
1.46324e-08
-2.75894e-08
8.31914e-07
1.28388e-15
-2.81182e-08
8.40984e-07
-1.46324e-08
-2.81182e-08
8.40984e-07
-2.75894e-08
-2.75894e-08
8.31914e-07
-3.72646e-08
-2.6422e-08
8.134e-07
-4.22326e-08
-2.43862e-08
7.83911e-07
-2.13391e-08
7.38559e-07
-4.13486e-08
4.03275e-08
-2.86638e-08
7.08493e-07
-3.94877e-08
3.56342e-08
-3.28167e-08
7.59434e-07
2.6422e-08
-3.56342e-08
7.92713e-07
1.40253e-08
-3.72646e-08
8.134e-07
7.30067e-16
-3.80164e-08
8.2345e-07
-1.40253e-08
-3.80164e-08
8.2345e-07
-2.6422e-08
-3.72646e-08
8.134e-07
-3.56342e-08
-3.56342e-08
7.92713e-07
-4.03275e-08
-3.28167e-08
7.59434e-07
-2.86638e-08
7.08493e-07
-3.94877e-08
3.70662e-08
-3.20638e-08
6.6085e-07
-3.66259e-08
3.28167e-08
-3.70662e-08
7.19971e-07
2.43862e-08
-4.03275e-08
7.59434e-07
1.29613e-08
-4.22326e-08
7.83911e-07
-1.07295e-15
-4.31297e-08
7.95713e-07
-1.29613e-08
-4.31297e-08
7.95713e-07
-2.43862e-08
-4.22326e-08
7.83911e-07
-3.28167e-08
-4.03275e-08
7.59434e-07
-3.70662e-08
-3.70662e-08
7.19971e-07
-3.20638e-08
6.6085e-07
-3.66259e-08
3.20638e-08
5.93337e-07
-3.16305e-08
-3.16305e-08
2.86638e-08
6.6085e-07
-3.66259e-08
2.13391e-08
7.08493e-07
-3.94877e-08
1.1364e-08
7.38559e-07
-4.13486e-08
-1.56076e-15
7.53105e-07
-4.22209e-08
-1.1364e-08
7.53105e-07
-4.22209e-08
-2.13391e-08
7.38559e-07
-4.13486e-08
-2.86638e-08
7.08493e-07
-3.94877e-08
-3.20638e-08
6.6085e-07
-3.66259e-08
5.93337e-07
-3.16305e-08
-3.16305e-08
1.31146e-08
1.31146e-08
5.915e-07
-1.21962e-08
-1.21962e-08
1.21722e-08
1.58282e-08
6.60534e-07
-1.457e-08
9.3106e-09
1.77572e-08
7.09739e-07
-1.61414e-08
5.03966e-09
1.89879e-08
7.41052e-07
-1.72101e-08
1.01773e-16
1.95814e-08
7.56279e-07
-1.77163e-08
-5.03966e-09
1.95814e-08
7.56279e-07
-1.77163e-08
-9.3106e-09
1.89879e-08
7.41052e-07
-1.72101e-08
-1.21722e-08
1.77572e-08
7.09739e-07
-1.61414e-08
-1.31146e-08
1.58282e-08
6.60534e-07
-1.457e-08
1.31146e-08
5.915e-07
-1.21962e-08
-1.21962e-08
1.58282e-08
1.21722e-08
6.60534e-07
-1.457e-08
1.46825e-08
1.46825e-08
7.22262e-07
1.12404e-08
1.6501e-08
7.64133e-07
6.0776e-09
1.76315e-08
7.9043e-07
1.66335e-15
1.81712e-08
8.032e-07
-6.0776e-09
1.81712e-08
8.032e-07
-1.12404e-08
1.76315e-08
7.9043e-07
-1.46824e-08
1.6501e-08
7.64133e-07
-1.58282e-08
1.46824e-08
7.22262e-07
1.21722e-08
6.60534e-07
-1.457e-08
1.77572e-08
9.3106e-09
7.09739e-07
-1.61414e-08
1.6501e-08
1.12404e-08
7.64133e-07
1.26283e-08
1.26283e-08
8.00458e-07
6.82095e-09
1.34765e-08
8.23362e-07
1.45934e-15
1.38756e-08
8.34566e-07
-6.82095e-09
1.38756e-08
8.34566e-07
-1.26283e-08
1.34765e-08
8.23362e-07
-1.6501e-08
1.26283e-08
8.00458e-07
-1.77572e-08
1.12404e-08
7.64133e-07
9.3106e-09
7.09739e-07
-1.61414e-08
1.89879e-08
5.03966e-09
7.41052e-07
-1.72101e-08
1.76315e-08
6.0776e-09
7.9043e-07
1.34765e-08
6.82095e-09
8.23362e-07
7.27248e-09
7.27248e-09
8.44322e-07
1.01582e-15
7.48327e-09
8.54649e-07
-7.27248e-09
7.48327e-09
8.54649e-07
-1.34765e-08
7.27248e-09
8.44322e-07
-1.76315e-08
6.82095e-09
8.23362e-07
-1.89879e-08
6.0776e-09
7.9043e-07
5.03966e-09
7.41052e-07
-1.72101e-08
1.95814e-08
7.13922e-16
7.56279e-07
-1.77163e-08
1.81712e-08
1.87533e-15
8.032e-07
1.38756e-08
1.62119e-15
8.34566e-07
7.48326e-09
1.23011e-15
8.54649e-07
8.16455e-16
1.10882e-15
8.64582e-07
-7.48326e-09
1.12141e-15
8.64582e-07
-1.38756e-08
9.78995e-16
8.54649e-07
-1.81712e-08
2.67081e-16
8.34566e-07
-1.95814e-08
-9.14088e-16
8.032e-07
-5.62752e-16
7.56279e-07
-1.77163e-08
1.95814e-08
-5.03966e-09
7.56279e-07
-1.77163e-08
1.81712e-08
-6.0776e-09
8.032e-07
1.38756e-08
-6.82095e-09
8.34566e-07
7.48327e-09
-7.27248e-09
8.54649e-07
8.5294e-16
-7.48326e-09
8.64582e-07
-7.48326e-09
-7.48326e-09
8.64582e-07
-1.38756e-08
-7.27248e-09
8.54649e-07
-1.81712e-08
-6.82095e-09
8.34566e-07
-1.95814e-08
-6.0776e-09
8.032e-07
-5.03966e-09
7.56279e-07
-1.77163e-08
1.89879e-08
-9.3106e-09
7.41052e-07
-1.72101e-08
1.76315e-08
-1.12404e-08
7.9043e-07
1.34765e-08
-1.26283e-08
8.23362e-07
7.27248e-09
-1.34765e-08
8.44322e-07
7.02744e-16
-1.38756e-08
8.54649e-07
-7.27248e-09
-1.38756e-08
8.54649e-07
-1.34765e-08
-1.34765e-08
8.44322e-07
-1.76315e-08
-1.26283e-08
8.23362e-07
-1.89879e-08
-1.12404e-08
7.9043e-07
-9.3106e-09
7.41052e-07
-1.72101e-08
1.77572e-08
-1.21722e-08
7.09739e-07
-1.61414e-08
1.6501e-08
-1.46824e-08
7.64133e-07
1.26283e-08
-1.6501e-08
8.00458e-07
6.82095e-09
-1.76315e-08
8.23362e-07
1.49971e-16
-1.81712e-08
8.34566e-07
-6.82095e-09
-1.81712e-08
8.34566e-07
-1.26283e-08
-1.76315e-08
8.23362e-07
-1.6501e-08
-1.6501e-08
8.00458e-07
-1.77572e-08
-1.46824e-08
7.64133e-07
-1.21722e-08
7.09739e-07
-1.61414e-08
1.58282e-08
-1.31146e-08
6.60534e-07
-1.457e-08
1.46824e-08
-1.58282e-08
7.22262e-07
1.12404e-08
-1.77572e-08
7.64133e-07
6.0776e-09
-1.89879e-08
7.9043e-07
-6.95408e-16
-1.95814e-08
8.032e-07
-6.0776e-09
-1.95814e-08
8.032e-07
-1.12404e-08
-1.89879e-08
7.9043e-07
-1.46824e-08
-1.77572e-08
7.64133e-07
-1.58282e-08
-1.58282e-08
7.22262e-07
-1.31146e-08
6.60534e-07
-1.457e-08
1.31146e-08
5.915e-07
-1.21962e-08
-1.21962e-08
1.21722e-08
6.60534e-07
-1.457e-08
9.3106e-09
7.09739e-07
-1.61414e-08
5.03966e-09
7.41052e-07
-1.72101e-08
-4.71514e-16
7.56279e-07
-1.77163e-08
-5.03966e-09
7.56279e-07
-1.77163e-08
-9.3106e-09
7.41052e-07
-1.72101e-08
-1.21722e-08
7.09739e-07
-1.61414e-08
-1.31146e-08
6.60534e-07
-1.457e-08
5.915e-07
-1.21962e-08
-1.21962e-08
4.43362e-09
4.43362e-09
5.90117e-07
-3.74238e-09
-3.74238e-09
4.40169e-09
5.8169e-09
6.5959e-07
-4.84037e-09
3.51571e-09
6.86414e-09
7.09386e-07
-5.62485e-09
1.95127e-09
7.56942e-09
7.41234e-07
-6.18735e-09
3.04891e-16
7.91641e-09
7.56772e-07
-6.45765e-09
-1.95127e-09
7.91641e-09
7.56772e-07
-6.45765e-09
-3.51571e-09
7.56942e-09
7.41234e-07
-6.18735e-09
-4.40169e-09
6.86414e-09
7.09386e-07
-5.62485e-09
-4.43362e-09
5.8169e-09
6.5959e-07
-4.84037e-09
4.43362e-09
5.90117e-07
-3.74238e-09
-3.74238e-09
5.8169e-09
4.40169e-09
6.5959e-07
-4.84037e-09
5.76413e-09
5.76413e-09
7.22368e-07
4.59603e-09
6.80547e-09
7.65359e-07
2.54178e-09
7.4846e-09
7.92569e-07
6.2006e-16
7.81639e-09
8.05842e-07
-2.54178e-09
7.81639e-09
8.05842e-07
-4.59603e-09
7.4846e-09
7.92569e-07
-5.76413e-09
6.80547e-09
7.65359e-07
-5.8169e-09
5.76413e-09
7.22368e-07
4.40169e-09
6.5959e-07
-4.84037e-09
6.86414e-09
3.51571e-09
7.09386e-07
-5.62485e-09
6.80547e-09
4.59603e-09
7.65359e-07
5.4156e-09
5.4156e-09
8.03238e-07
2.98737e-09
5.93939e-09
8.27336e-07
4.74886e-16
6.19202e-09
8.39178e-07
-2.98737e-09
6.19202e-09
8.39178e-07
-5.4156e-09
5.93939e-09
8.27336e-07
-6.80547e-09
5.4156e-09
8.03238e-07
-6.86414e-09
4.59603e-09
7.65359e-07
3.51571e-09
7.09386e-07
-5.62485e-09
7.56942e-09
1.95127e-09
7.41234e-07
-6.18735e-09
7.4846e-09
2.54178e-09
7.92569e-07
5.93939e-09
2.98737e-09
8.27336e-07
3.26993e-09
3.26993e-09
8.49661e-07
6.0167e-16
3.40524e-09
8.60706e-07
-3.26992e-09
3.40524e-09
8.60706e-07
-5.93939e-09
3.26993e-09
8.49661e-07
-7.4846e-09
2.98737e-09
8.27336e-07
-7.56942e-09
2.54178e-09
7.92569e-07
1.95127e-09
7.41234e-07
-6.18735e-09
7.91641e-09
2.92132e-16
7.56772e-07
-6.45765e-09
7.81639e-09
7.94857e-16
8.05842e-07
6.19202e-09
5.03897e-16
8.39178e-07
3.40524e-09
4.97825e-16
8.60706e-07
7.85415e-16
7.12224e-16
8.71392e-07
-3.40524e-09
9.28341e-16
8.71392e-07
-6.19202e-09
9.87556e-16
8.60706e-07
-7.81638e-09
5.68279e-16
8.39178e-07
-7.91641e-09
-2.9718e-16
8.05842e-07
-4.49208e-16
7.56772e-07
-6.45765e-09
7.91641e-09
-1.95127e-09
7.56772e-07
-6.45765e-09
7.81639e-09
-2.54178e-09
8.05842e-07
6.19202e-09
-2.98737e-09
8.39178e-07
3.40524e-09
-3.26992e-09
8.60706e-07
1.10484e-15
-3.40524e-09
8.71392e-07
-3.40524e-09
-3.40524e-09
8.71392e-07
-6.19202e-09
-3.26992e-09
8.60706e-07
-7.81638e-09
-2.98737e-09
8.39178e-07
-7.91641e-09
-2.54178e-09
8.05842e-07
-1.95127e-09
7.56772e-07
-6.45765e-09
7.56942e-09
-3.51571e-09
7.41234e-07
-6.18735e-09
7.4846e-09
-4.59603e-09
7.92569e-07
5.93939e-09
-5.4156e-09
8.27336e-07
3.26993e-09
-5.93939e-09
8.49661e-07
1.06117e-15
-6.19202e-09
8.60706e-07
-3.26992e-09
-6.19202e-09
8.60706e-07
-5.93939e-09
-5.93939e-09
8.49661e-07
-7.4846e-09
-5.4156e-09
8.27336e-07
-7.56941e-09
-4.59603e-09
7.92569e-07
-3.51572e-09
7.41234e-07
-6.18735e-09
6.86414e-09
-4.40169e-09
7.09386e-07
-5.62485e-09
6.80547e-09
-5.76413e-09
7.65359e-07
5.4156e-09
-6.80547e-09
8.03238e-07
2.98737e-09
-7.4846e-09
8.27336e-07
5.74431e-16
-7.81638e-09
8.39178e-07
-2.98737e-09
-7.81638e-09
8.39178e-07
-5.4156e-09
-7.4846e-09
8.27336e-07
-6.80547e-09
-6.80547e-09
8.03238e-07
-6.86414e-09
-5.76413e-09
7.65359e-07
-4.4017e-09
7.09386e-07
-5.62485e-09
5.8169e-09
-4.43362e-09
6.5959e-07
-4.84037e-09
5.76413e-09
-5.8169e-09
7.22368e-07
4.59603e-09
-6.86414e-09
7.65359e-07
2.54178e-09
-7.56942e-09
7.92569e-07
-1.47708e-16
-7.91641e-09
8.05842e-07
-2.54178e-09
-7.91641e-09
8.05842e-07
-4.59603e-09
-7.56941e-09
7.92569e-07
-5.76413e-09
-6.86414e-09
7.65359e-07
-5.8169e-09
-5.81691e-09
7.22368e-07
-4.43362e-09
6.5959e-07
-4.84037e-09
4.43362e-09
5.90117e-07
-3.74238e-09
-3.74238e-09
4.40169e-09
6.5959e-07
-4.84037e-09
3.51571e-09
7.09386e-07
-5.62485e-09
1.95127e-09
7.41234e-07
-6.18735e-09
-5.48193e-16
7.56772e-07
-6.45765e-09
-1.95127e-09
7.56772e-07
-6.45765e-09
-3.51571e-09
7.41234e-07
-6.18735e-09
-4.40169e-09
7.09386e-07
-5.62485e-09
-4.43362e-09
6.5959e-07
-4.84037e-09
5.90117e-07
-3.74238e-09
-3.74238e-09
1.20487e-09
1.20487e-09
5.89488e-07
-8.9031e-10
-8.90311e-10
1.3063e-09
1.77487e-09
6.59015e-07
-1.30198e-09
1.09825e-09
2.23506e-09
7.0897e-07
-1.6115e-09
6.27501e-10
2.56382e-09
7.40993e-07
-1.85147e-09
3.77421e-16
2.72884e-09
7.56639e-07
-1.96819e-09
-6.275e-10
2.72884e-09
7.56639e-07
-1.96819e-09
-1.09825e-09
2.56382e-09
7.40993e-07
-1.85147e-09
-1.3063e-09
2.23506e-09
7.0897e-07
-1.61149e-09
-1.20487e-09
1.77487e-09
6.59015e-07
-1.30198e-09
1.20487e-09
5.89488e-07
-8.90311e-10
-8.90308e-10
1.77487e-09
1.3063e-09
6.59015e-07
-1.30198e-09
1.90245e-09
1.90245e-09
7.22113e-07
1.58894e-09
2.38841e-09
7.6552e-07
9.0134e-10
2.72274e-09
7.93098e-07
8.28877e-16
2.89012e-09
8.06582e-07
-9.01338e-10
2.89012e-09
8.06582e-07
-1.58894e-09
2.72275e-09
7.93098e-07
-1.90245e-09
2.38841e-09
7.6552e-07
-1.77487e-09
1.90244e-09
7.22113e-07
1.30629e-09
6.59015e-07
-1.30198e-09
2.23506e-09
1.09825e-09
7.0897e-07
-1.6115e-09
2.38841e-09
1.58894e-09
7.6552e-07
1.98537e-09
1.98537e-09
8.04044e-07
1.12102e-09
2.25217e-09
8.28671e-07
9.26612e-16
2.38446e-09
8.40805e-07
-1.12101e-09
2.38446e-09
8.40805e-07
-1.98537e-09
2.25217e-09
8.28671e-07
-2.38841e-09
1.98537e-09
8.04044e-07
-2.23506e-09
1.58894e-09
7.6552e-07
1.09825e-09
7.0897e-07
-1.6115e-09
2.56382e-09
6.27501e-10
7.40993e-07
-1.85147e-09
2.72275e-09
9.0134e-10
7.93098e-07
2.25217e-09
1.12102e-09
8.28671e-07
1.26758e-09
1.26758e-09
8.5163e-07
8.33955e-16
1.33987e-09
8.63018e-07
-1.26757e-09
1.33987e-09
8.63018e-07
-2.25216e-09
1.26758e-09
8.5163e-07
-2.72274e-09
1.12102e-09
8.28671e-07
-2.56382e-09
9.01338e-10
7.93098e-07
6.275e-10
7.40993e-07
-1.85147e-09
2.72884e-09
4.15316e-16
7.56639e-07
-1.96819e-09
2.89012e-09
9.94586e-16
8.06582e-07
2.38446e-09
1.00418e-15
8.40805e-07
1.33987e-09
9.56541e-16
8.63018e-07
7.34454e-16
9.2539e-16
8.74072e-07
-1.33987e-09
8.63514e-16
8.74072e-07
-2.38446e-09
7.52321e-16
8.63018e-07
-2.89012e-09
5.92997e-16
8.40805e-07
-2.72883e-09
1.69851e-16
8.06582e-07
1.95738e-16
7.56639e-07
-1.96819e-09
2.72884e-09
-6.275e-10
7.56639e-07
-1.96819e-09
2.89012e-09
-9.01338e-10
8.06582e-07
2.38446e-09
-1.12101e-09
8.40805e-07
1.33987e-09
-1.26757e-09
8.63018e-07
7.04438e-16
-1.33987e-09
8.74072e-07
-1.33987e-09
-1.33987e-09
8.74072e-07
-2.38446e-09
-1.26757e-09
8.63018e-07
-2.89012e-09
-1.12101e-09
8.40805e-07
-2.72883e-09
-9.01338e-10
8.06582e-07
-6.275e-10
7.56639e-07
-1.96819e-09
2.56382e-09
-1.09825e-09
7.40993e-07
-1.85147e-09
2.72274e-09
-1.58894e-09
7.93098e-07
2.25217e-09
-1.98537e-09
8.28671e-07
1.26758e-09
-2.25216e-09
8.5163e-07
6.45816e-16
-2.38446e-09
8.63018e-07
-1.26757e-09
-2.38446e-09
8.63018e-07
-2.25216e-09
-2.25216e-09
8.5163e-07
-2.72274e-09
-1.98537e-09
8.28671e-07
-2.56382e-09
-1.58894e-09
7.93098e-07
-1.09824e-09
7.40993e-07
-1.85147e-09
2.23506e-09
-1.3063e-09
7.0897e-07
-1.6115e-09
2.38841e-09
-1.90244e-09
7.6552e-07
1.98537e-09
-2.38841e-09
8.04044e-07
1.12102e-09
-2.72274e-09
8.28671e-07
5.55399e-16
-2.89012e-09
8.40805e-07
-1.12101e-09
-2.89012e-09
8.40805e-07
-1.98537e-09
-2.72274e-09
8.28671e-07
-2.38841e-09
-2.38841e-09
8.04044e-07
-2.23506e-09
-1.90244e-09
7.6552e-07
-1.30629e-09
7.0897e-07
-1.61149e-09
1.77487e-09
-1.20487e-09
6.59015e-07
-1.30198e-09
1.90245e-09
-1.77487e-09
7.22113e-07
1.58894e-09
-2.23506e-09
7.6552e-07
9.01338e-10
-2.56382e-09
7.93098e-07
3.14225e-16
-2.72883e-09
8.06582e-07
-9.01338e-10
-2.72883e-09
8.06582e-07
-1.58894e-09
-2.56382e-09
7.93098e-07
-1.90244e-09
-2.23506e-09
7.6552e-07
-1.77487e-09
-1.77486e-09
7.22113e-07
-1.20487e-09
6.59015e-07
-1.30198e-09
1.20487e-09
5.89488e-07
-8.9031e-10
-8.9031e-10
1.3063e-09
6.59015e-07
-1.30198e-09
1.09825e-09
7.0897e-07
-1.61149e-09
6.275e-10
7.40993e-07
-1.85147e-09
1.91759e-16
7.56639e-07
-1.96819e-09
-6.27501e-10
7.56639e-07
-1.96819e-09
-1.09825e-09
7.40993e-07
-1.85147e-09
-1.3063e-09
7.0897e-07
-1.61149e-09
-1.20487e-09
6.59015e-07
-1.30198e-09
5.89488e-07
-8.9031e-10
-8.90309e-10
2.78251e-10
2.7825e-10
5.89251e-07
-1.59495e-10
-1.59495e-10
3.40731e-10
4.77622e-10
6.58768e-07
-2.92555e-10
3.05092e-10
6.46439e-10
7.08757e-07
-3.97526e-10
1.80213e-10
7.73033e-10
7.40828e-07
-4.83271e-10
-5.12928e-17
8.37316e-10
7.56507e-07
-5.24916e-10
-1.80213e-10
8.37316e-10
7.56507e-07
-5.24916e-10
-3.05092e-10
7.73032e-10
7.40828e-07
-4.8327e-10
-3.40731e-10
6.46439e-10
7.08757e-07
-3.97526e-10
-2.78253e-10
4.77624e-10
6.58768e-07
-2.92556e-10
2.78251e-10
5.89251e-07
-1.59497e-10
-1.59496e-10
4.77622e-10
3.40729e-10
6.58768e-07
-2.92555e-10
5.60402e-10
5.60402e-10
7.21947e-07
4.91192e-10
7.48173e-10
7.65487e-07
2.85787e-10
8.83181e-10
7.93193e-07
8.10271e-18
9.51974e-10
8.06753e-07
-2.85787e-10
9.51974e-10
8.06753e-07
-4.91193e-10
8.83181e-10
7.93193e-07
-5.60403e-10
7.48174e-10
7.65487e-07
-4.77623e-10
5.60404e-10
7.21947e-07
3.40729e-10
6.58768e-07
-2.92555e-10
6.46438e-10
3.05091e-10
7.08757e-07
-3.97525e-10
7.48171e-10
4.91192e-10
7.65487e-07
6.49357e-10
6.49358e-10
8.04241e-07
3.74958e-10
7.60526e-10
8.29068e-07
8.91644e-17
8.16819e-10
8.41315e-07
-3.74958e-10
8.16819e-10
8.41315e-07
-6.49357e-10
7.60526e-10
8.29068e-07
-7.48172e-10
6.49358e-10
8.04241e-07
-6.46438e-10
4.91193e-10
7.65487e-07
3.05091e-10
7.08757e-07
-3.97526e-10
7.73031e-10
1.80213e-10
7.40828e-07
-4.8327e-10
8.8318e-10
2.85787e-10
7.93193e-07
7.60526e-10
3.74958e-10
8.29068e-07
4.37109e-10
4.37109e-10
8.52277e-07
2.56217e-16
4.68476e-10
8.63803e-07
-4.37109e-10
4.68476e-10
8.63803e-07
-7.60525e-10
4.37109e-10
8.52277e-07
-8.8318e-10
3.74959e-10
8.29068e-07
-7.73031e-10
2.85787e-10
7.93193e-07
1.80212e-10
7.40828e-07
-4.8327e-10
8.37316e-10