/*--------------------------------*- C++ -*----------------------------------*\
| =========                 |                                                 |
| \\      /  F ield         | OpenFOAM: The Open Source CFD Toolbox           |
|  \\    /   O peration     | Version:  2412                                  |
|   \\  /    A nd           | Website:  www.openfoam.com                      |
|    \\/     M anipulation  |                                                 |
\*---------------------------------------------------------------------------*/
FoamFile
{
    version     2.0;
    format      ascii;
    arch        "LSB;label=32;scalar=64";
    class       volVectorField;
    location    "5.6";
    object      U;
}
// * * * * * * * * * * * * * * * * * * * * * * * * * * * * * * * * * * * * * //

dimensions      [0 1 -1 0 0 0 0];

internalField   nonuniform List<vector> 
15000
(
(0.00122199 0.00122199 0.0104404)
(0.000904837 0.00114742 0.0104109)
(0.00061769 0.00112262 0.0103807)
(0.000362859 0.00109715 0.0103581)
(0.000119207 0.00108527 0.0103467)
(-0.000119207 0.00108527 0.0103467)
(-0.000362859 0.00109715 0.0103581)
(-0.00061769 0.00112262 0.0103807)
(-0.000904837 0.00114742 0.0104109)
(-0.00122199 0.00122199 0.0104404)
(0.00114742 0.000904837 0.0104109)
(0.000855201 0.000855201 0.0103625)
(0.000585404 0.000818386 0.0103234)
(0.000341213 0.000791633 0.0102976)
(0.000111894 0.000778462 0.010285)
(-0.000111894 0.000778462 0.010285)
(-0.000341213 0.000791633 0.0102976)
(-0.000585404 0.000818386 0.0103234)
(-0.000855201 0.000855201 0.0103625)
(-0.00114742 0.000904837 0.0104109)
(0.00112262 0.00061769 0.0103807)
(0.000818386 0.000585404 0.0103234)
(0.000555161 0.000555161 0.0102819)
(0.000321369 0.00053286 0.0102553)
(0.000105092 0.00052154 0.0102424)
(-0.000105092 0.00052154 0.0102424)
(-0.000321369 0.00053286 0.0102553)
(-0.000555161 0.000555161 0.0102819)
(-0.000818386 0.000585404 0.0103234)
(-0.00112262 0.00061769 0.0103807)
(0.00109715 0.000362859 0.0103581)
(0.000791633 0.000341213 0.0102976)
(0.00053286 0.000321369 0.0102553)
(0.000306777 0.000306777 0.0102284)
(0.000100076 0.000299313 0.0102152)
(-0.000100076 0.000299313 0.0102152)
(-0.000306777 0.000306777 0.0102284)
(-0.00053286 0.000321369 0.0102553)
(-0.000791633 0.000341213 0.0102976)
(-0.00109715 0.000362859 0.0103581)
(0.00108527 0.000119207 0.0103467)
(0.000778462 0.000111894 0.010285)
(0.00052154 0.000105092 0.0102424)
(0.000299313 0.000100076 0.0102152)
(9.75041e-05 9.75041e-05 0.0102018)
(-9.75041e-05 9.75041e-05 0.0102018)
(-0.000299313 0.000100076 0.0102152)
(-0.00052154 0.000105092 0.0102424)
(-0.000778462 0.000111894 0.010285)
(-0.00108527 0.000119207 0.0103467)
(0.00108527 -0.000119207 0.0103467)
(0.000778462 -0.000111894 0.010285)
(0.00052154 -0.000105092 0.0102424)
(0.000299313 -0.000100076 0.0102152)
(9.75041e-05 -9.75041e-05 0.0102018)
(-9.75041e-05 -9.75041e-05 0.0102018)
(-0.000299313 -0.000100076 0.0102152)
(-0.00052154 -0.000105092 0.0102424)
(-0.000778462 -0.000111894 0.010285)
(-0.00108527 -0.000119207 0.0103467)
(0.00109715 -0.000362859 0.0103581)
(0.000791633 -0.000341213 0.0102976)
(0.00053286 -0.000321369 0.0102553)
(0.000306777 -0.000306777 0.0102284)
(0.000100076 -0.000299313 0.0102152)
(-0.000100076 -0.000299313 0.0102152)
(-0.000306777 -0.000306777 0.0102284)
(-0.00053286 -0.000321369 0.0102553)
(-0.000791633 -0.000341213 0.0102976)
(-0.00109715 -0.000362859 0.0103581)
(0.00112262 -0.00061769 0.0103807)
(0.000818386 -0.000585404 0.0103234)
(0.000555161 -0.000555161 0.0102819)
(0.000321369 -0.00053286 0.0102553)
(0.000105092 -0.00052154 0.0102424)
(-0.000105092 -0.00052154 0.0102424)
(-0.000321369 -0.00053286 0.0102553)
(-0.000555161 -0.000555161 0.0102819)
(-0.000818386 -0.000585404 0.0103234)
(-0.00112262 -0.00061769 0.0103807)
(0.00114742 -0.000904837 0.0104109)
(0.000855201 -0.000855201 0.0103625)
(0.000585404 -0.000818386 0.0103234)
(0.000341213 -0.000791633 0.0102976)
(0.000111894 -0.000778462 0.010285)
(-0.000111894 -0.000778462 0.010285)
(-0.000341213 -0.000791633 0.0102976)
(-0.000585404 -0.000818386 0.0103234)
(-0.000855201 -0.000855201 0.0103625)
(-0.00114742 -0.000904837 0.0104109)
(0.00122199 -0.00122199 0.0104404)
(0.000904837 -0.00114742 0.0104109)
(0.00061769 -0.00112262 0.0103807)
(0.000362859 -0.00109715 0.0103581)
(0.000119207 -0.00108527 0.0103467)
(-0.000119207 -0.00108527 0.0103467)
(-0.000362859 -0.00109715 0.0103581)
(-0.00061769 -0.00112262 0.0103807)
(-0.000904837 -0.00114742 0.0104109)
(-0.00122199 -0.00122199 0.0104404)
(0.000732751 0.000732751 0.0126267)
(0.000579458 0.000773058 0.0126034)
(0.000412364 0.000798131 0.0125173)
(0.000246791 0.000809031 0.0124321)
(8.17399e-05 0.000814467 0.0123832)
(-8.17399e-05 0.000814467 0.0123832)
(-0.000246791 0.000809031 0.0124321)
(-0.000412364 0.000798131 0.0125173)
(-0.000579458 0.000773058 0.0126034)
(-0.000732751 0.000732751 0.0126267)
(0.000773058 0.000579458 0.0126034)
(0.000601283 0.000601283 0.0124527)
(0.000423355 0.000610213 0.012276)
(0.000250915 0.000612269 0.0121401)
(8.29499e-05 0.000613048 0.0120688)
(-8.29499e-05 0.000613048 0.0120688)
(-0.000250915 0.000612269 0.0121401)
(-0.000423355 0.000610213 0.012276)
(-0.000601283 0.000601283 0.0124527)
(-0.000773058 0.000579458 0.0126034)
(0.000798131 0.000412364 0.0125173)
(0.000610213 0.000423355 0.012276)
(0.000426069 0.000426069 0.0120498)
(0.000251227 0.000425615 0.0118901)
(8.29466e-05 0.00042515 0.0118095)
(-8.29466e-05 0.00042515 0.0118095)
(-0.000251227 0.000425615 0.0118901)
(-0.000426069 0.000426069 0.0120498)
(-0.000610213 0.000423355 0.012276)
(-0.000798131 0.000412364 0.0125173)
(0.000809031 0.000246791 0.0124321)
(0.000612269 0.000250915 0.0121401)
(0.000425615 0.000251227 0.0118901)
(0.000250413 0.000250413 0.0117209)
(8.26345e-05 0.000249886 0.0116372)
(-8.26345e-05 0.000249886 0.0116372)
(-0.000250413 0.000250413 0.0117209)
(-0.000425615 0.000251227 0.0118901)
(-0.000612269 0.000250915 0.0121401)
(-0.000809031 0.000246791 0.0124321)
(0.000814467 8.17399e-05 0.0123832)
(0.000613048 8.29499e-05 0.0120688)
(0.00042515 8.29466e-05 0.0118095)
(0.000249886 8.26345e-05 0.0116372)
(8.24399e-05 8.24399e-05 0.0115526)
(-8.24399e-05 8.24399e-05 0.0115526)
(-0.000249886 8.26345e-05 0.0116372)
(-0.00042515 8.29466e-05 0.0118095)
(-0.000613048 8.29499e-05 0.0120688)
(-0.000814467 8.17399e-05 0.0123832)
(0.000814467 -8.17399e-05 0.0123832)
(0.000613048 -8.29499e-05 0.0120688)
(0.00042515 -8.29466e-05 0.0118095)
(0.000249886 -8.26345e-05 0.0116372)
(8.24399e-05 -8.24399e-05 0.0115526)
(-8.24399e-05 -8.24399e-05 0.0115526)
(-0.000249886 -8.26345e-05 0.0116372)
(-0.00042515 -8.29466e-05 0.0118095)
(-0.000613048 -8.29499e-05 0.0120688)
(-0.000814467 -8.17399e-05 0.0123832)
(0.000809031 -0.000246791 0.0124321)
(0.000612269 -0.000250915 0.0121401)
(0.000425615 -0.000251227 0.0118901)
(0.000250413 -0.000250413 0.0117209)
(8.26345e-05 -0.000249886 0.0116372)
(-8.26345e-05 -0.000249886 0.0116372)
(-0.000250413 -0.000250413 0.0117209)
(-0.000425615 -0.000251227 0.0118901)
(-0.000612269 -0.000250915 0.0121401)
(-0.000809031 -0.000246791 0.0124321)
(0.000798131 -0.000412364 0.0125173)
(0.000610213 -0.000423355 0.012276)
(0.000426069 -0.000426069 0.0120498)
(0.000251227 -0.000425615 0.0118901)
(8.29466e-05 -0.00042515 0.0118095)
(-8.29466e-05 -0.00042515 0.0118095)
(-0.000251227 -0.000425615 0.0118901)
(-0.000426069 -0.000426069 0.0120498)
(-0.000610213 -0.000423354 0.012276)
(-0.000798131 -0.000412364 0.0125173)
(0.000773058 -0.000579458 0.0126034)
(0.000601283 -0.000601283 0.0124527)
(0.000423355 -0.000610213 0.012276)
(0.000250915 -0.000612269 0.0121401)
(8.29499e-05 -0.000613048 0.0120688)
(-8.29499e-05 -0.000613048 0.0120688)
(-0.000250915 -0.000612269 0.0121401)
(-0.000423354 -0.000610213 0.012276)
(-0.000601283 -0.000601283 0.0124527)
(-0.000773058 -0.000579458 0.0126034)
(0.000732751 -0.000732751 0.0126267)
(0.000579458 -0.000773058 0.0126034)
(0.000412364 -0.000798131 0.0125173)
(0.000246791 -0.000809031 0.0124321)
(8.17399e-05 -0.000814467 0.0123832)
(-8.17399e-05 -0.000814467 0.0123832)
(-0.000246791 -0.000809031 0.0124321)
(-0.000412364 -0.000798131 0.0125173)
(-0.000579458 -0.000773058 0.0126034)
(-0.000732751 -0.000732751 0.0126267)
(0.000484526 0.000484526 0.0125004)
(0.000406041 0.000543951 0.0127224)
(0.000305727 0.000585365 0.0127848)
(0.000189368 0.000610608 0.0127813)
(6.38521e-05 0.000623152 0.0127683)
(-6.38521e-05 0.000623152 0.0127683)
(-0.000189368 0.000610608 0.0127813)
(-0.000305727 0.000585365 0.0127848)
(-0.000406041 0.000543951 0.0127224)
(-0.000484526 0.000484526 0.0125004)
(0.000543951 0.000406041 0.0127224)
(0.000455392 0.000455392 0.0127854)
(0.000339913 0.000487348 0.0127238)
(0.00020943 0.000505881 0.0126473)
(7.0582e-05 0.000514779 0.0126016)
(-7.0582e-05 0.000514779 0.0126016)
(-0.00020943 0.000505881 0.0126473)
(-0.000339913 0.000487348 0.0127238)
(-0.000455392 0.000455392 0.0127854)
(-0.000543951 0.000406041 0.0127224)
(0.000585365 0.000305727 0.0127848)
(0.000487348 0.000339913 0.0127238)
(0.000362159 0.000362159 0.0125879)
(0.000222439 0.000374988 0.0124742)
(7.4922e-05 0.000381023 0.0124136)
(-7.4922e-05 0.000381023 0.0124136)
(-0.000222439 0.000374988 0.0124742)
(-0.000362159 0.000362159 0.0125879)
(-0.000487348 0.000339913 0.0127238)
(-0.000585365 0.000305727 0.0127848)
(0.000610608 0.000189368 0.0127813)
(0.000505881 0.00020943 0.0126473)
(0.000374988 0.000222439 0.0124742)
(0.000229968 0.000229968 0.0123448)
(7.74286e-05 0.000233471 0.0122788)
(-7.74286e-05 0.000233471 0.0122788)
(-0.000229968 0.000229968 0.0123448)
(-0.000374988 0.000222439 0.0124742)
(-0.000505881 0.00020943 0.0126473)
(-0.000610608 0.000189368 0.0127813)
(0.000623152 6.38521e-05 0.0127683)
(0.000514779 7.0582e-05 0.0126016)
(0.000381023 7.4922e-05 0.0124136)
(0.000233471 7.74286e-05 0.0122788)
(7.8586e-05 7.8586e-05 0.0122112)
(-7.8586e-05 7.8586e-05 0.0122112)
(-0.000233471 7.74286e-05 0.0122788)
(-0.000381023 7.4922e-05 0.0124136)
(-0.000514779 7.0582e-05 0.0126016)
(-0.000623152 6.38521e-05 0.0127683)
(0.000623152 -6.38521e-05 0.0127683)
(0.000514779 -7.0582e-05 0.0126016)
(0.000381023 -7.4922e-05 0.0124136)
(0.000233471 -7.74286e-05 0.0122788)
(7.8586e-05 -7.8586e-05 0.0122112)
(-7.8586e-05 -7.8586e-05 0.0122112)
(-0.000233471 -7.74286e-05 0.0122788)
(-0.000381023 -7.4922e-05 0.0124136)
(-0.000514779 -7.0582e-05 0.0126016)
(-0.000623152 -6.38521e-05 0.0127683)
(0.000610608 -0.000189368 0.0127813)
(0.000505881 -0.00020943 0.0126473)
(0.000374988 -0.000222439 0.0124742)
(0.000229968 -0.000229968 0.0123448)
(7.74286e-05 -0.000233471 0.0122788)
(-7.74286e-05 -0.000233471 0.0122788)
(-0.000229968 -0.000229968 0.0123448)
(-0.000374988 -0.000222439 0.0124742)
(-0.000505881 -0.00020943 0.0126473)
(-0.000610608 -0.000189368 0.0127813)
(0.000585365 -0.000305727 0.0127848)
(0.000487348 -0.000339913 0.0127238)
(0.000362159 -0.000362159 0.0125879)
(0.000222439 -0.000374988 0.0124742)
(7.4922e-05 -0.000381023 0.0124136)
(-7.4922e-05 -0.000381023 0.0124136)
(-0.000222439 -0.000374988 0.0124742)
(-0.000362159 -0.000362159 0.0125879)
(-0.000487348 -0.000339913 0.0127238)
(-0.000585365 -0.000305727 0.0127848)
(0.000543951 -0.000406041 0.0127224)
(0.000455392 -0.000455392 0.0127854)
(0.000339913 -0.000487348 0.0127238)
(0.00020943 -0.000505881 0.0126473)
(7.0582e-05 -0.000514779 0.0126016)
(-7.0582e-05 -0.000514779 0.0126016)
(-0.00020943 -0.000505881 0.0126473)
(-0.000339913 -0.000487348 0.0127238)
(-0.000455392 -0.000455392 0.0127854)
(-0.000543951 -0.000406041 0.0127224)
(0.000484526 -0.000484526 0.0125004)
(0.000406041 -0.000543951 0.0127224)
(0.000305727 -0.000585365 0.0127848)
(0.000189368 -0.000610608 0.0127813)
(6.38521e-05 -0.000623152 0.0127683)
(-6.38521e-05 -0.000623152 0.0127683)
(-0.000189368 -0.000610608 0.0127813)
(-0.000305727 -0.000585365 0.0127848)
(-0.000406041 -0.000543951 0.0127224)
(-0.000484526 -0.000484526 0.0125004)
(0.000191718 0.000191718 0.0126801)
(0.00017075 0.000236585 0.0130014)
(0.000136623 0.000269288 0.0131366)
(8.75191e-05 0.000291865 0.0131795)
(3.00302e-05 0.000303247 0.0131887)
(-3.00302e-05 0.000303247 0.0131887)
(-8.75191e-05 0.000291865 0.0131795)
(-0.000136623 0.000269288 0.0131366)
(-0.00017075 0.000236585 0.0130014)
(-0.000191718 0.000191718 0.0126801)
(0.000236585 0.00017075 0.0130014)
(0.000212669 0.000212669 0.0131775)
(0.000168116 0.00024354 0.0131919)
(0.000107406 0.000263725 0.0131617)
(3.68445e-05 0.000273789 0.0131377)
(-3.68445e-05 0.000273789 0.0131377)
(-0.000107406 0.000263725 0.0131617)
(-0.000168116 0.00024354 0.0131919)
(-0.000212669 0.000212669 0.0131775)
(-0.000236585 0.00017075 0.0130014)
(0.000269288 0.000136623 0.0131366)
(0.00024354 0.000168116 0.0131919)
(0.000192117 0.000192117 0.0131306)
(0.000122482 0.000207714 0.0130612)
(4.19983e-05 0.000215422 0.0130213)
(-4.19982e-05 0.000215422 0.0130213)
(-0.000122482 0.000207714 0.0130612)
(-0.000192117 0.000192117 0.0131306)
(-0.00024354 0.000168116 0.0131919)
(-0.000269288 0.000136623 0.0131366)
(0.000291865 8.75191e-05 0.0131795)
(0.000263725 0.000107406 0.0131617)
(0.000207714 0.000122482 0.0130612)
(0.000132256 0.000132256 0.0129742)
(4.5331e-05 0.000137054 0.0129277)
(-4.5331e-05 0.000137054 0.0129277)
(-0.000132256 0.000132256 0.0129742)
(-0.000207714 0.000122482 0.0130612)
(-0.000263725 0.000107406 0.0131617)
(-0.000291865 8.75191e-05 0.0131795)
(0.000303247 3.00302e-05 0.0131887)
(0.000273789 3.68445e-05 0.0131377)
(0.000215422 4.19983e-05 0.0130213)
(0.000137054 4.5331e-05 0.0129277)
(4.696e-05 4.696e-05 0.0128789)
(-4.696e-05 4.696e-05 0.0128789)
(-0.000137054 4.5331e-05 0.0129277)
(-0.000215422 4.19982e-05 0.0130213)
(-0.000273789 3.68445e-05 0.0131377)
(-0.000303247 3.00302e-05 0.0131887)
(0.000303247 -3.00302e-05 0.0131887)
(0.000273789 -3.68445e-05 0.0131377)
(0.000215422 -4.19982e-05 0.0130213)
(0.000137054 -4.5331e-05 0.0129277)
(4.696e-05 -4.696e-05 0.0128789)
(-4.696e-05 -4.696e-05 0.0128789)
(-0.000137054 -4.5331e-05 0.0129277)
(-0.000215422 -4.19982e-05 0.0130213)
(-0.000273789 -3.68445e-05 0.0131377)
(-0.000303247 -3.00302e-05 0.0131887)
(0.000291865 -8.75191e-05 0.0131795)
(0.000263725 -0.000107406 0.0131617)
(0.000207714 -0.000122482 0.0130612)
(0.000132256 -0.000132256 0.0129742)
(4.5331e-05 -0.000137054 0.0129277)
(-4.5331e-05 -0.000137054 0.0129277)
(-0.000132256 -0.000132256 0.0129742)
(-0.000207714 -0.000122482 0.0130612)
(-0.000263725 -0.000107406 0.0131617)
(-0.000291865 -8.75191e-05 0.0131795)
(0.000269288 -0.000136623 0.0131366)
(0.00024354 -0.000168116 0.0131919)
(0.000192117 -0.000192117 0.0131306)
(0.000122482 -0.000207714 0.0130612)
(4.19982e-05 -0.000215422 0.0130213)
(-4.19982e-05 -0.000215422 0.0130213)
(-0.000122482 -0.000207714 0.0130612)
(-0.000192117 -0.000192117 0.0131306)
(-0.00024354 -0.000168116 0.0131919)
(-0.000269288 -0.000136623 0.0131366)
(0.000236585 -0.00017075 0.0130014)
(0.000212669 -0.000212669 0.0131775)
(0.000168116 -0.00024354 0.0131919)
(0.000107406 -0.000263725 0.0131617)
(3.68445e-05 -0.000273788 0.0131377)
(-3.68445e-05 -0.000273789 0.0131377)
(-0.000107406 -0.000263725 0.0131617)
(-0.000168116 -0.00024354 0.0131919)
(-0.000212669 -0.000212669 0.0131775)
(-0.000236585 -0.00017075 0.0130014)
(0.000191718 -0.000191718 0.0126801)
(0.00017075 -0.000236585 0.0130014)
(0.000136623 -0.000269288 0.0131366)
(8.75191e-05 -0.000291865 0.0131795)
(3.00302e-05 -0.000303247 0.0131887)
(-3.00302e-05 -0.000303247 0.0131887)
(-8.75191e-05 -0.000291865 0.0131795)
(-0.000136623 -0.000269288 0.0131366)
(-0.00017075 -0.000236585 0.0130014)
(-0.000191718 -0.000191718 0.0126801)
(7.7516e-05 7.7516e-05 0.0126107)
(7.12613e-05 9.87926e-05 0.0129878)
(5.9372e-05 0.000115528 0.0131708)
(3.88607e-05 0.000127692 0.0132477)
(1.34839e-05 0.000133908 0.0132744)
(-1.34839e-05 0.000133908 0.0132744)
(-3.88607e-05 0.000127692 0.0132477)
(-5.9372e-05 0.000115528 0.0131708)
(-7.12613e-05 9.87926e-05 0.0129878)
(-7.7516e-05 7.7516e-05 0.0126107)
(9.87926e-05 7.12613e-05 0.0129878)
(9.35762e-05 9.35762e-05 0.0132401)
(7.69968e-05 0.000110977 0.0133154)
(5.03494e-05 0.000122882 0.0133271)
(1.74636e-05 0.000128923 0.0133242)
(-1.74636e-05 0.000128923 0.0133242)
(-5.03494e-05 0.000122882 0.0133271)
(-7.69968e-05 0.000110977 0.0133154)
(-9.35762e-05 9.35762e-05 0.0132401)
(-9.87926e-05 7.12613e-05 0.0129878)
(0.000115528 5.9372e-05 0.0131708)
(0.000110977 7.69968e-05 0.0133154)
(9.11785e-05 9.11785e-05 0.0133232)
(5.95332e-05 0.00010078 0.0133)
(2.06407e-05 0.000105616 0.0132829)
(-2.06407e-05 0.000105616 0.0132829)
(-5.95332e-05 0.00010078 0.0133)
(-9.11785e-05 9.11785e-05 0.0133232)
(-0.000110977 7.69969e-05 0.0133154)
(-0.000115528 5.9372e-05 0.0131708)
(0.000127692 3.88607e-05 0.0132477)
(0.000122882 5.03494e-05 0.0133271)
(0.00010078 5.95332e-05 0.0133)
(6.57069e-05 6.57069e-05 0.0132609)
(2.27692e-05 6.87957e-05 0.013238)
(-2.27692e-05 6.87957e-05 0.013238)
(-6.57069e-05 6.57069e-05 0.0132609)
(-0.00010078 5.95332e-05 0.0133)
(-0.000122882 5.03494e-05 0.0133271)
(-0.000127692 3.88607e-05 0.0132477)
(0.000133908 1.34839e-05 0.0132744)
(0.000128923 1.74636e-05 0.0133242)
(0.000105616 2.06407e-05 0.0132829)
(6.87957e-05 2.27692e-05 0.013238)
(2.38303e-05 2.38303e-05 0.0132129)
(-2.38303e-05 2.38303e-05 0.0132129)
(-6.87957e-05 2.27692e-05 0.013238)
(-0.000105616 2.06407e-05 0.0132829)
(-0.000128923 1.74636e-05 0.0133242)
(-0.000133908 1.34839e-05 0.0132744)
(0.000133908 -1.34839e-05 0.0132744)
(0.000128923 -1.74636e-05 0.0133242)
(0.000105616 -2.06407e-05 0.0132829)
(6.87957e-05 -2.27692e-05 0.013238)
(2.38303e-05 -2.38303e-05 0.0132129)
(-2.38303e-05 -2.38303e-05 0.0132129)
(-6.87957e-05 -2.27692e-05 0.013238)
(-0.000105616 -2.06407e-05 0.0132829)
(-0.000128923 -1.74636e-05 0.0133242)
(-0.000133908 -1.34839e-05 0.0132744)
(0.000127692 -3.88607e-05 0.0132477)
(0.000122882 -5.03494e-05 0.0133271)
(0.00010078 -5.95332e-05 0.0133)
(6.57069e-05 -6.57069e-05 0.0132609)
(2.27692e-05 -6.87957e-05 0.013238)
(-2.27692e-05 -6.87957e-05 0.013238)
(-6.57069e-05 -6.57069e-05 0.0132609)
(-0.00010078 -5.95332e-05 0.0133)
(-0.000122882 -5.03494e-05 0.0133271)
(-0.000127692 -3.88607e-05 0.0132477)
(0.000115528 -5.9372e-05 0.0131708)
(0.000110977 -7.69969e-05 0.0133154)
(9.11785e-05 -9.11785e-05 0.0133232)
(5.95332e-05 -0.00010078 0.0133)
(2.06407e-05 -0.000105616 0.0132829)
(-2.06407e-05 -0.000105616 0.0132829)
(-5.95332e-05 -0.00010078 0.0133)
(-9.11785e-05 -9.11785e-05 0.0133232)
(-0.000110977 -7.69968e-05 0.0133154)
(-0.000115528 -5.9372e-05 0.0131708)
(9.87926e-05 -7.12613e-05 0.0129878)
(9.35762e-05 -9.35762e-05 0.0132401)
(7.69969e-05 -0.000110977 0.0133154)
(5.03494e-05 -0.000122882 0.0133271)
(1.74636e-05 -0.000128923 0.0133242)
(-1.74636e-05 -0.000128923 0.0133242)
(-5.03494e-05 -0.000122882 0.0133271)
(-7.69968e-05 -0.000110977 0.0133154)
(-9.35762e-05 -9.35762e-05 0.0132401)
(-9.87927e-05 -7.12613e-05 0.0129878)
(7.7516e-05 -7.7516e-05 0.0126107)
(7.12613e-05 -9.87926e-05 0.0129878)
(5.9372e-05 -0.000115528 0.0131708)
(3.88607e-05 -0.000127692 0.0132477)
(1.34839e-05 -0.000133908 0.0132744)
(-1.34839e-05 -0.000133908 0.0132744)
(-3.88607e-05 -0.000127692 0.0132477)
(-5.9372e-05 -0.000115528 0.0131708)
(-7.12613e-05 -9.87927e-05 0.0129878)
(-7.7516e-05 -7.7516e-05 0.0126107)
(2.53739e-05 2.53739e-05 0.0125643)
(2.49538e-05 3.50211e-05 0.0129561)
(2.21599e-05 4.29608e-05 0.0131553)
(1.49814e-05 4.89863e-05 0.0132454)
(5.28487e-06 5.20988e-05 0.0132793)
(-5.28487e-06 5.20988e-05 0.0132793)
(-1.49814e-05 4.89863e-05 0.0132454)
(-2.21599e-05 4.29608e-05 0.0131553)
(-2.49538e-05 3.50211e-05 0.0129561)
(-2.53739e-05 2.53739e-05 0.0125643)
(3.50211e-05 2.49538e-05 0.0129561)
(3.58115e-05 3.58115e-05 0.0132366)
(3.11095e-05 4.47024e-05 0.0133385)
(2.0975e-05 5.10264e-05 0.0133702)
(7.3803e-06 5.42852e-05 0.0133779)
(-7.38029e-06 5.42852e-05 0.0133779)
(-2.0975e-05 5.10264e-05 0.0133702)
(-3.11095e-05 4.47024e-05 0.0133385)
(-3.58115e-05 3.58115e-05 0.0132366)
(-3.50211e-05 2.49538e-05 0.0129561)
(4.29608e-05 2.21599e-05 0.0131553)
(4.47024e-05 3.11095e-05 0.0133385)
(3.86489e-05 3.86489e-05 0.0133806)
(2.59778e-05 4.39289e-05 0.0133819)
(9.12739e-06 4.66308e-05 0.0133775)
(-9.12739e-06 4.66308e-05 0.0133775)
(-2.59778e-05 4.39289e-05 0.0133819)
(-3.86489e-05 3.86489e-05 0.0133806)
(-4.47024e-05 3.11095e-05 0.0133385)
(-4.29608e-05 2.21599e-05 0.0131553)
(4.89863e-05 1.49814e-05 0.0132454)
(5.10264e-05 2.0975e-05 0.0133702)
(4.39289e-05 2.59778e-05 0.0133819)
(2.94441e-05 2.94441e-05 0.0133701)
(1.0333e-05 3.12056e-05 0.0133609)
(-1.0333e-05 3.12056e-05 0.0133609)
(-2.94441e-05 2.94441e-05 0.0133701)
(-4.39289e-05 2.59778e-05 0.0133819)
(-5.10264e-05 2.0975e-05 0.0133702)
(-4.89863e-05 1.49814e-05 0.0132454)
(5.20988e-05 5.28487e-06 0.0132793)
(5.42852e-05 7.3803e-06 0.0133779)
(4.66308e-05 9.12739e-06 0.0133775)
(3.12056e-05 1.0333e-05 0.0133609)
(1.09436e-05 1.09436e-05 0.0133501)
(-1.09436e-05 1.09436e-05 0.0133501)
(-3.12056e-05 1.03331e-05 0.0133609)
(-4.66308e-05 9.1274e-06 0.0133775)
(-5.42852e-05 7.38029e-06 0.0133779)
(-5.20988e-05 5.28486e-06 0.0132793)
(5.20988e-05 -5.28487e-06 0.0132793)
(5.42852e-05 -7.38029e-06 0.0133779)
(4.66308e-05 -9.12739e-06 0.0133775)
(3.12056e-05 -1.0333e-05 0.0133609)
(1.09436e-05 -1.09436e-05 0.0133501)
(-1.09436e-05 -1.09436e-05 0.0133501)
(-3.12056e-05 -1.0333e-05 0.0133609)
(-4.66308e-05 -9.12739e-06 0.0133775)
(-5.42852e-05 -7.3803e-06 0.0133779)
(-5.20988e-05 -5.28487e-06 0.0132793)
(4.89863e-05 -1.49814e-05 0.0132454)
(5.10264e-05 -2.0975e-05 0.0133702)
(4.39289e-05 -2.59777e-05 0.0133819)
(2.94441e-05 -2.94441e-05 0.0133701)
(1.03331e-05 -3.12056e-05 0.0133609)
(-1.0333e-05 -3.12056e-05 0.0133609)
(-2.94441e-05 -2.94441e-05 0.0133701)
(-4.39289e-05 -2.59778e-05 0.0133819)
(-5.10264e-05 -2.0975e-05 0.0133702)
(-4.89863e-05 -1.49814e-05 0.0132454)
(4.29608e-05 -2.21599e-05 0.0131553)
(4.47024e-05 -3.11095e-05 0.0133385)
(3.86489e-05 -3.86489e-05 0.0133806)
(2.59778e-05 -4.39289e-05 0.0133819)
(9.12739e-06 -4.66308e-05 0.0133775)
(-9.12739e-06 -4.66308e-05 0.0133775)
(-2.59778e-05 -4.39289e-05 0.0133819)
(-3.86489e-05 -3.86489e-05 0.0133806)
(-4.47023e-05 -3.11094e-05 0.0133385)
(-4.29608e-05 -2.21599e-05 0.0131553)
(3.50211e-05 -2.49538e-05 0.0129561)
(3.58115e-05 -3.58115e-05 0.0132366)
(3.11095e-05 -4.47024e-05 0.0133385)
(2.0975e-05 -5.10264e-05 0.0133702)
(7.38029e-06 -5.42852e-05 0.0133779)
(-7.38029e-06 -5.42852e-05 0.0133779)
(-2.0975e-05 -5.10264e-05 0.0133702)
(-3.11094e-05 -4.47023e-05 0.0133385)
(-3.58115e-05 -3.58115e-05 0.0132366)
(-3.50211e-05 -2.49538e-05 0.0129561)
(2.53739e-05 -2.53739e-05 0.0125643)
(2.49538e-05 -3.50211e-05 0.0129561)
(2.21599e-05 -4.29608e-05 0.0131553)
(1.49814e-05 -4.89863e-05 0.0132454)
(5.28486e-06 -5.20988e-05 0.0132793)
(-5.28487e-06 -5.20988e-05 0.0132793)
(-1.49814e-05 -4.89863e-05 0.0132454)
(-2.21599e-05 -4.29607e-05 0.0131553)
(-2.49538e-05 -3.50211e-05 0.0129561)
(-2.53739e-05 -2.53739e-05 0.0125643)
(6.58868e-06 6.58868e-06 0.0125457)
(7.08999e-06 1.02081e-05 0.0129412)
(6.82638e-06 1.33369e-05 0.0131459)
(4.78395e-06 1.58444e-05 0.0132409)
(1.72282e-06 1.71525e-05 0.0132776)
(-1.72282e-06 1.71525e-05 0.0132776)
(-4.78395e-06 1.58444e-05 0.0132409)
(-6.82639e-06 1.33369e-05 0.0131459)
(-7.08999e-06 1.02081e-05 0.0129412)
(-6.58868e-06 6.58869e-06 0.0125457)
(1.02081e-05 7.08999e-06 0.0129412)
(1.14785e-05 1.14785e-05 0.0132315)
(1.06264e-05 1.5285e-05 0.0133441)
(7.40892e-06 1.81222e-05 0.0133844)
(2.64947e-06 1.96107e-05 0.0133968)
(-2.64946e-06 1.96107e-05 0.0133968)
(-7.40891e-06 1.81222e-05 0.0133844)
(-1.06264e-05 1.52851e-05 0.0133441)
(-1.14785e-05 1.14785e-05 0.0132315)
(-1.02081e-05 7.08999e-06 0.0129412)
(1.33369e-05 6.82639e-06 0.0131459)
(1.5285e-05 1.06264e-05 0.0133441)
(1.40108e-05 1.40108e-05 0.013401)
(9.72123e-06 1.64816e-05 0.0134136)
(3.46593e-06 1.77706e-05 0.0134151)
(-3.46592e-06 1.77706e-05 0.0134151)
(-9.72121e-06 1.64816e-05 0.0134136)
(-1.40108e-05 1.40108e-05 0.013401)
(-1.5285e-05 1.06264e-05 0.0133441)
(-1.33369e-05 6.82639e-06 0.0131459)
(1.58444e-05 4.78395e-06 0.0132409)
(1.81222e-05 7.40892e-06 0.0133844)
(1.64816e-05 9.72123e-06 0.0134136)
(1.13874e-05 1.13874e-05 0.0134145)
(4.05196e-06 1.22512e-05 0.0134119)
(-4.05195e-06 1.22512e-05 0.0134119)
(-1.13874e-05 1.13874e-05 0.0134145)
(-1.64816e-05 9.72122e-06 0.0134136)
(-1.81222e-05 7.40891e-06 0.0133844)
(-1.58444e-05 4.78395e-06 0.0132409)
(1.71525e-05 1.72282e-06 0.0132776)
(1.96107e-05 2.64947e-06 0.0133968)
(1.77706e-05 3.46593e-06 0.0134151)
(1.22512e-05 4.05196e-06 0.0134119)
(4.35496e-06 4.35496e-06 0.013408)
(-4.35495e-06 4.35496e-06 0.013408)
(-1.22512e-05 4.05196e-06 0.0134119)
(-1.77706e-05 3.46593e-06 0.0134151)
(-1.96107e-05 2.64946e-06 0.0133968)
(-1.71525e-05 1.72282e-06 0.0132776)
(1.71525e-05 -1.72282e-06 0.0132776)
(1.96107e-05 -2.64946e-06 0.0133968)
(1.77706e-05 -3.46592e-06 0.0134151)
(1.22512e-05 -4.05195e-06 0.0134119)
(4.35496e-06 -4.35495e-06 0.013408)
(-4.35495e-06 -4.35495e-06 0.013408)
(-1.22512e-05 -4.05195e-06 0.0134119)
(-1.77706e-05 -3.46592e-06 0.0134151)
(-1.96107e-05 -2.64946e-06 0.0133968)
(-1.71525e-05 -1.72282e-06 0.0132776)
(1.58444e-05 -4.78395e-06 0.0132409)
(1.81222e-05 -7.40891e-06 0.0133844)
(1.64816e-05 -9.72121e-06 0.0134136)
(1.13874e-05 -1.13874e-05 0.0134145)
(4.05196e-06 -1.22512e-05 0.0134119)
(-4.05195e-06 -1.22512e-05 0.0134119)
(-1.13874e-05 -1.13874e-05 0.0134145)
(-1.64816e-05 -9.72122e-06 0.0134136)
(-1.81222e-05 -7.40891e-06 0.0133844)
(-1.58444e-05 -4.78394e-06 0.0132409)
(1.33369e-05 -6.82639e-06 0.0131459)
(1.52851e-05 -1.06264e-05 0.0133441)
(1.40108e-05 -1.40108e-05 0.013401)
(9.72122e-06 -1.64816e-05 0.0134136)
(3.46593e-06 -1.77706e-05 0.0134151)
(-3.46592e-06 -1.77706e-05 0.0134151)
(-9.72122e-06 -1.64816e-05 0.0134136)
(-1.40108e-05 -1.40108e-05 0.013401)
(-1.5285e-05 -1.06264e-05 0.0133441)
(-1.33369e-05 -6.82638e-06 0.0131459)
(1.02081e-05 -7.08999e-06 0.0129412)
(1.14785e-05 -1.14785e-05 0.0132315)
(1.06264e-05 -1.5285e-05 0.0133441)
(7.40891e-06 -1.81222e-05 0.0133844)
(2.64946e-06 -1.96107e-05 0.0133968)
(-2.64946e-06 -1.96107e-05 0.0133968)
(-7.40891e-06 -1.81222e-05 0.0133844)
(-1.06264e-05 -1.5285e-05 0.0133441)
(-1.14785e-05 -1.14785e-05 0.0132315)
(-1.02081e-05 -7.08999e-06 0.0129412)
(6.58868e-06 -6.58868e-06 0.0125457)
(7.08999e-06 -1.02081e-05 0.0129412)
(6.82639e-06 -1.33369e-05 0.0131459)
(4.78395e-06 -1.58444e-05 0.0132409)
(1.72282e-06 -1.71525e-05 0.0132776)
(-1.72282e-06 -1.71525e-05 0.0132776)
(-4.78394e-06 -1.58444e-05 0.0132409)
(-6.82638e-06 -1.33369e-05 0.0131459)
(-7.08999e-06 -1.02081e-05 0.0129412)
(-6.58869e-06 -6.58869e-06 0.0125457)
(1.42074e-06 1.42074e-06 0.0125382)
(1.74272e-06 2.58852e-06 0.0129342)
(1.86881e-06 3.63814e-06 0.0131405)
(1.36348e-06 4.5297e-06 0.0132372)
(5.04017e-07 4.99659e-06 0.0132749)
(-5.04018e-07 4.99659e-06 0.0132749)
(-1.36348e-06 4.5297e-06 0.0132372)
(-1.86881e-06 3.63814e-06 0.0131405)
(-1.74271e-06 2.58851e-06 0.0129342)
(-1.42073e-06 1.42073e-06 0.0125382)
(2.58851e-06 1.74272e-06 0.0129342)
(3.27076e-06 3.27075e-06 0.0132276)
(3.24621e-06 4.65818e-06 0.013344)
(2.33992e-06 5.73649e-06 0.0133876)
(8.51145e-07 6.31045e-06 0.0134019)
(-8.51145e-07 6.31045e-06 0.0134019)
(-2.33992e-06 5.73649e-06 0.0133876)
(-3.2462e-06 4.65818e-06 0.013344)
(-3.27074e-06 3.27075e-06 0.0132276)
(-2.5885e-06 1.74271e-06 0.0129342)
(3.63815e-06 1.86881e-06 0.0131405)
(4.65818e-06 3.24621e-06 0.013344)
(4.53358e-06 4.53358e-06 0.0134068)
(3.24353e-06 5.51088e-06 0.013424)
(1.17322e-06 6.02923e-06 0.013428)
(-1.17322e-06 6.02922e-06 0.013428)
(-3.24353e-06 5.51088e-06 0.013424)
(-4.53358e-06 4.53358e-06 0.0134068)
(-4.65817e-06 3.24621e-06 0.013344)
(-3.63813e-06 1.86881e-06 0.0131405)
(4.5297e-06 1.36348e-06 0.0132372)
(5.73649e-06 2.33992e-06 0.0133876)
(5.51088e-06 3.24353e-06 0.013424)
(3.9199e-06 3.9199e-06 0.0134304)
(1.41357e-06 4.2769e-06 0.0134307)
(-1.41357e-06 4.27691e-06 0.0134307)
(-3.9199e-06 3.91991e-06 0.0134304)
(-5.51087e-06 3.24353e-06 0.013424)
(-5.73649e-06 2.33992e-06 0.0133876)
(-4.52969e-06 1.36348e-06 0.0132372)
(4.99659e-06 5.04018e-07 0.0132749)
(6.31045e-06 8.51145e-07 0.0134019)
(6.02922e-06 1.17322e-06 0.013428)
(4.2769e-06 1.41357e-06 0.0134307)
(1.54027e-06 1.54027e-06 0.0134299)
(-1.54026e-06 1.54027e-06 0.0134299)
(-4.2769e-06 1.41357e-06 0.0134307)
(-6.02922e-06 1.17322e-06 0.013428)
(-6.31044e-06 8.51147e-07 0.0134019)
(-4.99658e-06 5.04016e-07 0.0132749)
(4.99658e-06 -5.04018e-07 0.0132749)
(6.31045e-06 -8.51146e-07 0.0134019)
(6.02922e-06 -1.17321e-06 0.013428)
(4.27691e-06 -1.41357e-06 0.0134307)
(1.54027e-06 -1.54026e-06 0.0134299)
(-1.54026e-06 -1.54026e-06 0.0134299)
(-4.2769e-06 -1.41357e-06 0.0134307)
(-6.02922e-06 -1.17321e-06 0.013428)
(-6.31044e-06 -8.51145e-07 0.0134019)
(-4.99658e-06 -5.04019e-07 0.0132749)
(4.52969e-06 -1.36348e-06 0.0132372)
(5.73649e-06 -2.33992e-06 0.0133876)
(5.51088e-06 -3.24353e-06 0.013424)
(3.91991e-06 -3.9199e-06 0.0134304)
(1.41357e-06 -4.2769e-06 0.0134307)
(-1.41357e-06 -4.2769e-06 0.0134307)
(-3.9199e-06 -3.9199e-06 0.0134304)
(-5.51087e-06 -3.24353e-06 0.013424)
(-5.73649e-06 -2.33992e-06 0.0133876)
(-4.52969e-06 -1.36348e-06 0.0132372)
(3.63813e-06 -1.86881e-06 0.0131405)
(4.65818e-06 -3.2462e-06 0.013344)
(4.53358e-06 -4.53358e-06 0.0134068)
(3.24353e-06 -5.51087e-06 0.013424)
(1.17322e-06 -6.02922e-06 0.013428)
(-1.17321e-06 -6.02922e-06 0.013428)
(-3.24353e-06 -5.51087e-06 0.013424)
(-4.53358e-06 -4.53358e-06 0.0134068)
(-4.65817e-06 -3.2462e-06 0.013344)
(-3.63813e-06 -1.8688e-06 0.0131405)
(2.5885e-06 -1.74271e-06 0.0129342)
(3.27075e-06 -3.27074e-06 0.0132276)
(3.24621e-06 -4.65817e-06 0.013344)
(2.33993e-06 -5.73649e-06 0.0133876)
(8.51148e-07 -6.31044e-06 0.0134019)
(-8.51145e-07 -6.31044e-06 0.0134019)
(-2.33992e-06 -5.73649e-06 0.0133876)
(-3.2462e-06 -4.65817e-06 0.013344)
(-3.27074e-06 -3.27074e-06 0.0132276)
(-2.58851e-06 -1.74271e-06 0.0129342)
(1.42074e-06 -1.42073e-06 0.0125382)
(1.74272e-06 -2.5885e-06 0.0129342)
(1.86881e-06 -3.63813e-06 0.0131405)
(1.36348e-06 -4.52969e-06 0.0132372)