/*--------------------------------*- C++ -*----------------------------------*\
| =========                 |                                                 |
| \\      /  F ield         | OpenFOAM: The Open Source CFD Toolbox           |
|  \\    /   O peration     | Version:  2412                                  |
|   \\  /    A nd           | Website:  www.openfoam.com                      |
|    \\/     M anipulation  |                                                 |
\*---------------------------------------------------------------------------*/
FoamFile
{
    version     2.0;
    format      ascii;
    arch        "LSB;label=32;scalar=64";
    class       surfaceScalarField;
    location    "3";
    object      phi;
}
// * * * * * * * * * * * * * * * * * * * * * * * * * * * * * * * * * * * * * //

dimensions      [0 3 -1 0 0 0 0];

oriented        oriented;

internalField   nonuniform List<scalar> 
43700
(
1.67238e-07
1.67238e-07
5.45466e-07
-2.04962e-07
-2.04962e-07
1.22851e-07
1.47232e-07
5.87233e-07
-1.80694e-07
8.11238e-08
1.35075e-07
6.17271e-07
-1.71187e-07
4.01917e-08
1.27069e-07
6.36804e-07
-1.63229e-07
-8.80185e-16
1.23271e-07
6.46488e-07
-1.59639e-07
-4.01917e-08
1.23271e-07
6.46488e-07
-1.59639e-07
-8.11238e-08
1.27069e-07
6.36804e-07
-1.63229e-07
-1.22851e-07
1.35075e-07
6.17271e-07
-1.71187e-07
-1.67238e-07
1.47232e-07
5.87233e-07
-1.80694e-07
1.67238e-07
5.45466e-07
-2.04962e-07
-2.04962e-07
1.47232e-07
1.22851e-07
5.87233e-07
-1.80694e-07
1.09196e-07
1.09196e-07
6.21916e-07
7.18863e-08
9.92331e-08
6.46842e-07
3.55864e-08
9.26532e-08
6.63212e-07
-4.14094e-16
8.9463e-08
6.71367e-07
-3.55864e-08
8.9463e-08
6.71367e-07
-7.18863e-08
9.26532e-08
6.63212e-07
-1.09196e-07
9.92331e-08
6.46842e-07
-1.47232e-07
1.09196e-07
6.21916e-07
1.22851e-07
5.87233e-07
-1.80694e-07
1.35075e-07
8.11238e-08
6.17271e-07
-1.71187e-07
9.92331e-08
7.18863e-08
6.46842e-07
6.49661e-08
6.49661e-08
6.68407e-07
3.2083e-08
6.03795e-08
6.82719e-07
1.0263e-16
5.81393e-08
6.89885e-07
-3.2083e-08
5.81393e-08
6.89885e-07
-6.49661e-08
6.03795e-08
6.82719e-07
-9.92331e-08
6.49661e-08
6.68407e-07
-1.35075e-07
7.18863e-08
6.46842e-07
8.11238e-08
6.17271e-07
-1.71187e-07
1.27069e-07
4.01917e-08
6.36804e-07
-1.63229e-07
9.26532e-08
3.55864e-08
6.63212e-07
6.03795e-08
3.2083e-08
6.82719e-07
2.9746e-08
2.9746e-08
6.9577e-07
2.8712e-16
2.85999e-08
7.02327e-07
-2.9746e-08
2.85999e-08
7.02327e-07
-6.03795e-08
2.9746e-08
6.9577e-07
-9.26532e-08
3.2083e-08
6.82719e-07
-1.27069e-07
3.55864e-08
6.63212e-07
4.01917e-08
6.36804e-07
-1.63229e-07
1.23271e-07
-1.45195e-15
6.46488e-07
-1.59639e-07
8.9463e-08
-6.46314e-16
6.71367e-07
5.81393e-08
7.61715e-16
6.89885e-07
2.85999e-08
8.95951e-16
7.02327e-07
7.5768e-16
9.82423e-16
7.08592e-07
-2.85999e-08
1.05892e-15
7.08592e-07
-5.81393e-08
1.29642e-15
7.02327e-07
-8.9463e-08
7.1615e-16
6.89885e-07
-1.23271e-07
9.6786e-16
6.71367e-07
1.30679e-15
6.46488e-07
-1.59639e-07
1.23271e-07
-4.01917e-08
6.46488e-07
-1.59639e-07
8.9463e-08
-3.55864e-08
6.71367e-07
5.81393e-08
-3.2083e-08
6.89885e-07
2.85999e-08
-2.9746e-08
7.02327e-07
9.56895e-16
-2.85999e-08
7.08592e-07
-2.85999e-08
-2.85999e-08
7.08592e-07
-5.81393e-08
-2.9746e-08
7.02327e-07
-8.9463e-08
-3.2083e-08
6.89885e-07
-1.23271e-07
-3.55864e-08
6.71367e-07
-4.01917e-08
6.46488e-07
-1.59639e-07
1.27069e-07
-8.11238e-08
6.36804e-07
-1.63229e-07
9.26532e-08
-7.18863e-08
6.63212e-07
6.03795e-08
-6.49661e-08
6.82719e-07
2.9746e-08
-6.03795e-08
6.9577e-07
5.62448e-16
-5.81393e-08
7.02327e-07
-2.9746e-08
-5.81393e-08
7.02327e-07
-6.03795e-08
-6.03795e-08
6.9577e-07
-9.26532e-08
-6.49661e-08
6.82719e-07
-1.27069e-07
-7.18863e-08
6.63212e-07
-8.11238e-08
6.36804e-07
-1.63229e-07
1.35075e-07
-1.22851e-07
6.17271e-07
-1.71187e-07
9.92331e-08
-1.09196e-07
6.46842e-07
6.49661e-08
-9.92331e-08
6.68407e-07
3.2083e-08
-9.26532e-08
6.82719e-07
1.80886e-16
-8.9463e-08
6.89885e-07
-3.2083e-08
-8.9463e-08
6.89885e-07
-6.49661e-08
-9.26532e-08
6.82719e-07
-9.92331e-08
-9.92331e-08
6.68407e-07
-1.35075e-07
-1.09196e-07
6.46842e-07
-1.22851e-07
6.17271e-07
-1.71187e-07
1.47232e-07
-1.67238e-07
5.87233e-07
-1.80694e-07
1.09196e-07
-1.47232e-07
6.21916e-07
7.18863e-08
-1.35075e-07
6.46842e-07
3.55864e-08
-1.27069e-07
6.63212e-07
7.48274e-16
-1.23271e-07
6.71367e-07
-3.55864e-08
-1.23271e-07
6.71367e-07
-7.18863e-08
-1.27069e-07
6.63212e-07
-1.09196e-07
-1.35075e-07
6.46842e-07
-1.47232e-07
-1.47232e-07
6.21916e-07
-1.67238e-07
5.87233e-07
-1.80694e-07
1.67238e-07
5.45466e-07
-2.04962e-07
-2.04962e-07
1.22851e-07
5.87233e-07
-1.80694e-07
8.11238e-08
6.17271e-07
-1.71187e-07
4.01917e-08
6.36804e-07
-1.63229e-07
1.39941e-15
6.46488e-07
-1.59639e-07
-4.01917e-08
6.46488e-07
-1.59639e-07
-8.11238e-08
6.36804e-07
-1.63229e-07
-1.22851e-07
6.17271e-07
-1.71187e-07
-1.67238e-07
5.87233e-07
-1.80694e-07
5.45466e-07
-2.04962e-07
-2.04962e-07
7.67311e-08
7.67311e-08
5.69211e-07
-8.86035e-08
-8.86035e-08
6.04507e-08
7.56665e-08
6.1525e-07
-8.74028e-08
4.17052e-08
7.50174e-08
6.48136e-07
-8.71375e-08
2.1224e-08
7.43123e-08
6.69461e-07
-8.6488e-08
1.03358e-16
7.40476e-08
6.80027e-07
-8.63622e-08
-2.1224e-08
7.40476e-08
6.80027e-07
-8.63622e-08
-4.17052e-08
7.43123e-08
6.69461e-07
-8.6488e-08
-6.04507e-08
7.50174e-08
6.48136e-07
-8.71375e-08
-7.67311e-08
7.56665e-08
6.1525e-07
-8.74027e-08
7.67311e-08
5.69211e-07
-8.86035e-08
-8.86035e-08
7.56665e-08
6.04507e-08
6.1525e-07
-8.74027e-08
5.98585e-08
5.98585e-08
6.53532e-07
4.14191e-08
5.93222e-08
6.80976e-07
2.11422e-08
5.87941e-08
6.99007e-07
3.5888e-16
5.85544e-08
7.08002e-07
-2.11422e-08
5.85544e-08
7.08002e-07
-4.14191e-08
5.87941e-08
6.99007e-07
-5.98585e-08
5.93222e-08
6.80976e-07
-7.56665e-08
5.98585e-08
6.53532e-07
6.04507e-08
6.1525e-07
-8.74027e-08
7.50174e-08
4.17052e-08
6.48136e-07
-8.71375e-08
5.93222e-08
4.14191e-08
6.80976e-07
4.10637e-08
4.10637e-08
7.04924e-07
2.09884e-08
4.07247e-08
7.20864e-07
1.30081e-15
4.05585e-08
7.28869e-07
-2.09884e-08
4.05585e-08
7.28869e-07
-4.10637e-08
4.07247e-08
7.20864e-07
-5.93222e-08
4.10637e-08
7.04924e-07
-7.50174e-08
4.14191e-08
6.80976e-07
4.17052e-08
6.48136e-07
-8.71375e-08
7.43123e-08
2.1224e-08
6.69461e-07
-8.6488e-08
5.87941e-08
2.11422e-08
6.99007e-07
4.07247e-08
2.09884e-08
7.20864e-07
2.08333e-08
2.08333e-08
7.35553e-07
2.14797e-15
2.07538e-08
7.42966e-07
-2.08333e-08
2.07538e-08
7.42966e-07
-4.07247e-08
2.08333e-08
7.35553e-07
-5.87941e-08
2.09884e-08
7.20864e-07
-7.43123e-08
2.11422e-08
6.99007e-07
2.1224e-08
6.69461e-07
-8.6488e-08
7.40476e-08
-8.05874e-16
6.80027e-07
-8.63622e-08
5.85544e-08
4.3358e-16
7.08002e-07
4.05585e-08
2.17309e-15
7.28869e-07
2.07538e-08
2.55115e-15
7.42966e-07
2.01739e-15
2.1585e-15
7.501e-07
-2.07538e-08
2.02628e-15
7.501e-07
-4.05585e-08
1.15707e-15
7.42966e-07
-5.85544e-08
4.3391e-16
7.28869e-07
-7.40476e-08
1.86252e-15
7.08002e-07
1.73973e-15
6.80027e-07
-8.63622e-08
7.40476e-08
-2.1224e-08
6.80027e-07
-8.63622e-08
5.85544e-08
-2.11422e-08
7.08002e-07
4.05585e-08
-2.09884e-08
7.28869e-07
2.07538e-08
-2.08333e-08
7.42966e-07
1.75672e-15
-2.07538e-08
7.501e-07
-2.07538e-08
-2.07538e-08
7.501e-07
-4.05585e-08
-2.08333e-08
7.42966e-07
-5.85544e-08
-2.09884e-08
7.28869e-07
-7.40476e-08
-2.11422e-08
7.08002e-07
-2.1224e-08
6.80027e-07
-8.63622e-08
7.43123e-08
-4.17052e-08
6.69461e-07
-8.6488e-08
5.87941e-08
-4.14191e-08
6.99007e-07
4.07247e-08
-4.10637e-08
7.20864e-07
2.08333e-08
-4.07247e-08
7.35553e-07
8.45033e-16
-4.05585e-08
7.42966e-07
-2.08333e-08
-4.05585e-08
7.42966e-07
-4.07247e-08
-4.07247e-08
7.35553e-07
-5.87941e-08
-4.10637e-08
7.20864e-07
-7.43123e-08
-4.14191e-08
6.99007e-07
-4.17052e-08
6.69461e-07
-8.6488e-08
7.50174e-08
-6.04507e-08
6.48136e-07
-8.71375e-08
5.93222e-08
-5.98585e-08
6.80976e-07
4.10637e-08
-5.93222e-08
7.04924e-07
2.09884e-08
-5.87941e-08
7.20864e-07
9.47581e-16
-5.85544e-08
7.28869e-07
-2.09884e-08
-5.85544e-08
7.28869e-07
-4.10637e-08
-5.87941e-08
7.20864e-07
-5.93222e-08
-5.93222e-08
7.04924e-07
-7.50174e-08
-5.98585e-08
6.80976e-07
-6.04506e-08
6.48136e-07
-8.71375e-08
7.56665e-08
-7.67311e-08
6.1525e-07
-8.74027e-08
5.98585e-08
-7.56665e-08
6.53532e-07
4.14191e-08
-7.50174e-08
6.80976e-07
2.11422e-08
-7.43123e-08
6.99007e-07
1.61333e-15
-7.40476e-08
7.08002e-07
-2.11422e-08
-7.40476e-08
7.08002e-07
-4.14191e-08
-7.43123e-08
6.99007e-07
-5.98585e-08
-7.50174e-08
6.80976e-07
-7.56665e-08
-7.56665e-08
6.53532e-07
-7.67311e-08
6.1525e-07
-8.74027e-08
7.67311e-08
5.69211e-07
-8.86035e-08
-8.86035e-08
6.04507e-08
6.1525e-07
-8.74027e-08
4.17052e-08
6.48136e-07
-8.71375e-08
2.1224e-08
6.69461e-07
-8.6488e-08
6.21448e-16
6.80027e-07
-8.63622e-08
-2.1224e-08
6.80027e-07
-8.63622e-08
-4.17052e-08
6.69461e-07
-8.6488e-08
-6.04506e-08
6.48136e-07
-8.71375e-08
-7.67311e-08
6.1525e-07
-8.74027e-08
5.69211e-07
-8.86035e-08
-8.86035e-08
4.33179e-08
4.33179e-08
5.73847e-07
-4.56357e-08
-4.56357e-08
3.63046e-08
4.54843e-08
6.24527e-07
-4.77487e-08
2.60074e-08
4.6763e-08
6.60913e-07
-4.92421e-08
1.35221e-08
4.73303e-08
6.84619e-07
-5.00026e-08
1.11362e-16
4.75995e-08
6.9638e-07
-5.04304e-08
-1.35221e-08
4.75995e-08
6.9638e-07
-5.04304e-08
-2.60074e-08
4.73303e-08
6.84619e-07
-5.00026e-08
-3.63046e-08
4.6763e-08
6.60913e-07
-4.92421e-08
-4.33179e-08
4.54843e-08
6.24527e-07
-4.77487e-08
4.33179e-08
5.73847e-07
-4.56357e-08
-4.56357e-08
4.54843e-08
3.63046e-08
6.24527e-07
-4.77487e-08
3.82704e-08
3.82704e-08
6.67959e-07
2.74814e-08
3.92964e-08
6.99232e-07
1.43141e-08
3.96988e-08
7.19806e-07
-5.4717e-16
3.98552e-08
7.30061e-07
-1.43141e-08
3.98552e-08
7.30061e-07
-2.74814e-08
3.96988e-08
7.19806e-07
-3.82704e-08
3.92964e-08
6.99232e-07
-4.54843e-08
3.82704e-08
6.67959e-07
3.63046e-08
6.24527e-07
-4.77487e-08
4.6763e-08
2.60074e-08
6.60913e-07
-4.92421e-08
3.92964e-08
2.74814e-08
6.99232e-07
2.81885e-08
2.81885e-08
7.2714e-07
1.46767e-08
2.84357e-08
7.45639e-07
8.47373e-16
2.85119e-08
7.54889e-07
-1.46767e-08
2.85119e-08
7.54889e-07
-2.81885e-08
2.84357e-08
7.45639e-07
-3.92964e-08
2.81885e-08
7.2714e-07
-4.6763e-08
2.74814e-08
6.99232e-07
2.60074e-08
6.60913e-07
-4.92421e-08
4.73303e-08
1.35221e-08
6.84619e-07
-5.00026e-08
3.96988e-08
1.43141e-08
7.19806e-07
2.84357e-08
1.46767e-08
7.45639e-07
1.47942e-08
1.47942e-08
7.62836e-07
1.98032e-15
1.48237e-08
7.71448e-07
-1.47942e-08
1.48237e-08
7.71448e-07
-2.84357e-08
1.47942e-08
7.62836e-07
-3.96988e-08
1.46767e-08
7.45639e-07
-4.73303e-08
1.43141e-08
7.19806e-07
1.35221e-08
6.84619e-07
-5.00026e-08
4.75995e-08
-7.22907e-16
6.9638e-07
-5.04304e-08
3.98552e-08
1.44379e-15
7.30061e-07
2.85119e-08
3.06322e-15
7.54889e-07
1.48237e-08
3.25584e-15
7.71448e-07
1.70463e-15
2.46143e-15
7.79747e-07
-1.48237e-08
1.73175e-15
7.79747e-07
-2.85119e-08
7.16298e-16
7.71448e-07
-3.98552e-08
2.15442e-16
7.54889e-07
-4.75995e-08
5.87006e-16
7.30061e-07
3.28434e-16
6.9638e-07
-5.04304e-08
4.75995e-08
-1.35221e-08
6.9638e-07
-5.04304e-08
3.98552e-08
-1.43141e-08
7.30061e-07
2.85119e-08
-1.46767e-08
7.54889e-07
1.48237e-08
-1.47942e-08
7.71448e-07
7.89959e-16
-1.48237e-08
7.79747e-07
-1.48237e-08
-1.48237e-08
7.79747e-07
-2.85119e-08
-1.47942e-08
7.71448e-07
-3.98552e-08
-1.46767e-08
7.54889e-07
-4.75995e-08
-1.43141e-08
7.30061e-07
-1.35221e-08
6.9638e-07
-5.04304e-08
4.73303e-08
-2.60074e-08
6.84619e-07
-5.00026e-08
3.96988e-08
-2.74814e-08
7.19806e-07
2.84357e-08
-2.81885e-08
7.45639e-07
1.47942e-08
-2.84357e-08
7.62836e-07
-4.49243e-16
-2.85119e-08
7.71448e-07
-1.47942e-08
-2.85119e-08
7.71448e-07
-2.84357e-08
-2.84357e-08
7.62836e-07
-3.96988e-08
-2.81885e-08
7.45639e-07
-4.73303e-08
-2.74814e-08
7.19806e-07
-2.60074e-08
6.84619e-07
-5.00026e-08
4.6763e-08
-3.63046e-08
6.60913e-07
-4.92421e-08
3.92964e-08
-3.82704e-08
6.99232e-07
2.81885e-08
-3.92964e-08
7.2714e-07
1.46767e-08
-3.96988e-08
7.45639e-07
-1.74649e-16
-3.98552e-08
7.54889e-07
-1.46767e-08
-3.98552e-08
7.54889e-07
-2.81885e-08
-3.96988e-08
7.45639e-07
-3.92964e-08
-3.92964e-08
7.2714e-07
-4.6763e-08
-3.82704e-08
6.99232e-07
-3.63046e-08
6.60913e-07
-4.92421e-08
4.54843e-08
-4.33179e-08
6.24527e-07
-4.77487e-08
3.82704e-08
-4.54843e-08
6.67959e-07
2.74814e-08
-4.6763e-08
6.99232e-07
1.43141e-08
-4.73303e-08
7.19806e-07
1.19035e-15
-4.75995e-08
7.30061e-07
-1.43141e-08
-4.75995e-08
7.30061e-07
-2.74814e-08
-4.73303e-08
7.19806e-07
-3.82704e-08
-4.6763e-08
6.99232e-07
-4.54843e-08
-4.54843e-08
6.67959e-07
-4.33179e-08
6.24527e-07
-4.77487e-08
4.33179e-08
5.73847e-07
-4.56357e-08
-4.56357e-08
3.63046e-08
6.24527e-07
-4.77487e-08
2.60074e-08
6.60913e-07
-4.92421e-08
1.35221e-08
6.84619e-07
-5.00026e-08
5.01378e-16
6.9638e-07
-5.04304e-08
-1.35221e-08
6.9638e-07
-5.04304e-08
-2.60074e-08
6.84619e-07
-5.00026e-08
-3.63046e-08
6.60913e-07
-4.92421e-08
-4.33179e-08
6.24527e-07
-4.77487e-08
5.73847e-07
-4.56357e-08
-4.56357e-08
1.47743e-08
1.47743e-08
5.72869e-07
-1.42857e-08
-1.42857e-08
1.33284e-08
1.72025e-08
6.25314e-07
-1.65437e-08
9.99284e-09
1.88447e-08
6.63389e-07
-1.7986e-08
5.33497e-09
1.98198e-08
6.88385e-07
-1.89281e-08
3.85762e-16
2.02997e-08
7.00829e-07
-1.94146e-08
-5.33497e-09
2.02997e-08
7.00829e-07
-1.94146e-08
-9.99284e-09
1.98198e-08
6.88385e-07
-1.89281e-08
-1.33284e-08
1.88447e-08
6.63389e-07
-1.7986e-08
-1.47743e-08
1.72025e-08
6.25314e-07
-1.65437e-08
1.47743e-08
5.72869e-07
-1.42857e-08
-1.42857e-08
1.72025e-08
1.33284e-08
6.25314e-07
-1.65437e-08
1.54822e-08
1.54822e-08
6.714e-07
1.16226e-08
1.69401e-08
7.04996e-07
6.20906e-09
1.77891e-08
7.2725e-07
1.05319e-15
1.81925e-08
7.38377e-07
-6.20906e-09
1.81925e-08
7.38377e-07
-1.16226e-08
1.77891e-08
7.2725e-07
-1.54822e-08
1.69401e-08
7.04996e-07
-1.72025e-08
1.54822e-08
6.714e-07
1.33284e-08
6.25314e-07
-1.65437e-08
1.88447e-08
9.99284e-09
6.63389e-07
-1.7986e-08
1.69401e-08
1.16226e-08
7.04996e-07
1.26959e-08
1.26959e-08
7.35629e-07
6.77694e-09
1.33119e-08
7.56035e-07
1.79842e-15
1.35978e-08
7.66261e-07
-6.77694e-09
1.35978e-08
7.66261e-07
-1.26959e-08
1.33119e-08
7.56035e-07
-1.69401e-08
1.26959e-08
7.35629e-07
-1.88447e-08
1.16226e-08
7.04996e-07
9.99284e-09
6.63389e-07
-1.7986e-08
1.98198e-08
5.33497e-09
6.88385e-07
-1.89281e-08
1.77891e-08
6.20906e-09
7.2725e-07
1.33119e-08
6.77694e-09
7.56035e-07
7.10009e-09
7.10009e-09
7.75259e-07
1.96423e-15
7.24807e-09
7.84898e-07
-7.10009e-09
7.24807e-09
7.84898e-07
-1.33119e-08
7.10009e-09
7.75259e-07
-1.77891e-08
6.77694e-09
7.56035e-07
-1.98198e-08
6.20906e-09
7.2725e-07
5.33497e-09
6.88385e-07
-1.89281e-08
2.02997e-08
8.91964e-17
7.00829e-07
-1.94146e-08
1.81925e-08
6.32668e-16
7.38377e-07
1.35978e-08
1.80535e-15
7.66261e-07
7.24807e-09
1.98421e-15
7.84898e-07
1.78457e-15
1.88877e-15
7.94243e-07
-7.24807e-09
1.52716e-15
7.94243e-07
-1.35978e-08
9.19316e-16
7.84898e-07
-1.81925e-08
3.60955e-16
7.66261e-07
-2.02997e-08
7.15959e-16
7.38377e-07
9.05972e-16
7.00829e-07
-1.94146e-08
2.02997e-08
-5.33497e-09
7.00829e-07
-1.94146e-08
1.81925e-08
-6.20906e-09
7.38377e-07
1.35978e-08
-6.77694e-09
7.66261e-07
7.24807e-09
-7.10009e-09
7.84898e-07
1.34496e-15
-7.24807e-09
7.94243e-07
-7.24807e-09
-7.24807e-09
7.94243e-07
-1.35978e-08
-7.10009e-09
7.84898e-07
-1.81925e-08
-6.77694e-09
7.66261e-07
-2.02997e-08
-6.20906e-09
7.38377e-07
-5.33496e-09
7.00829e-07
-1.94146e-08
1.98198e-08
-9.99284e-09
6.88385e-07
-1.89281e-08
1.77891e-08
-1.16226e-08
7.2725e-07
1.33119e-08
-1.26959e-08
7.56035e-07
7.10009e-09
-1.33119e-08
7.75259e-07
9.5082e-16
-1.35978e-08
7.84898e-07
-7.10009e-09
-1.35978e-08
7.84898e-07
-1.33119e-08
-1.33119e-08
7.75259e-07
-1.77891e-08
-1.26959e-08
7.56035e-07
-1.98198e-08
-1.16226e-08
7.2725e-07
-9.99284e-09
6.88385e-07
-1.89281e-08
1.88447e-08
-1.33284e-08
6.63389e-07
-1.7986e-08
1.69401e-08
-1.54822e-08
7.04996e-07
1.26959e-08
-1.69401e-08
7.35629e-07
6.77694e-09
-1.77891e-08
7.56035e-07
8.14971e-16
-1.81925e-08
7.66261e-07
-6.77694e-09
-1.81925e-08
7.66261e-07
-1.26959e-08
-1.77891e-08
7.56035e-07
-1.69401e-08
-1.69401e-08
7.35629e-07
-1.88447e-08
-1.54822e-08
7.04996e-07
-1.33284e-08
6.63389e-07
-1.7986e-08
1.72025e-08
-1.47743e-08
6.25314e-07
-1.65437e-08
1.54822e-08
-1.72025e-08
6.714e-07
1.16226e-08
-1.88447e-08
7.04996e-07
6.20906e-09
-1.98198e-08
7.2725e-07
6.73846e-16
-2.02997e-08
7.38377e-07
-6.20906e-09
-2.02997e-08
7.38377e-07
-1.16226e-08
-1.98198e-08
7.2725e-07
-1.54822e-08
-1.88447e-08
7.04996e-07
-1.72025e-08
-1.72025e-08
6.714e-07
-1.47743e-08
6.25314e-07
-1.65437e-08
1.47743e-08
5.72869e-07
-1.42857e-08
-1.42857e-08
1.33284e-08
6.25314e-07
-1.65437e-08
9.99284e-09
6.63389e-07
-1.7986e-08
5.33497e-09
6.88385e-07
-1.89281e-08
4.53785e-17
7.00829e-07
-1.94146e-08
-5.33496e-09
7.00829e-07
-1.94146e-08
-9.99284e-09
6.88385e-07
-1.89281e-08
-1.33284e-08
6.63389e-07
-1.7986e-08
-1.47743e-08
6.25314e-07
-1.65437e-08
5.72869e-07
-1.42857e-08
-1.42857e-08
4.95574e-09
4.95575e-09
5.72086e-07
-4.56397e-09
-4.56397e-09
4.61222e-09
6.00313e-09
6.25117e-07
-5.4622e-09
3.52458e-09
6.75114e-09
6.63788e-07
-6.06178e-09
1.90318e-09
7.22975e-09
6.89254e-07
-6.47748e-09
-4.75455e-16
7.47138e-09
7.01952e-07
-6.69098e-09
-1.90318e-09
7.47138e-09
7.01952e-07
-6.69097e-09
-3.52459e-09
7.22975e-09
6.89254e-07
-6.47748e-09
-4.61222e-09
6.75114e-09
6.63788e-07
-6.06178e-09
-4.95574e-09
6.00312e-09
6.25117e-07
-5.4622e-09
4.95574e-09
5.72086e-07
-4.56397e-09
-4.56398e-09
6.00313e-09
4.61222e-09
6.25117e-07
-5.4622e-09
5.60194e-09
5.60194e-09
6.72202e-07
4.30362e-09
6.32151e-09
7.06724e-07
2.32997e-09
6.77627e-09
7.29677e-07
4.3336e-16
7.00182e-09
7.41177e-07
-2.32997e-09
7.00182e-09
7.41177e-07
-4.30362e-09
6.77627e-09
7.29677e-07
-5.60194e-09
6.32151e-09
7.06724e-07
-6.00313e-09
5.60193e-09
6.72202e-07
4.61222e-09
6.25117e-07
-5.46221e-09
6.75115e-09
3.52458e-09
6.63788e-07
-6.06178e-09
6.32152e-09
4.30362e-09
7.06724e-07
4.86517e-09
4.86517e-09
7.38541e-07
2.63676e-09
5.21774e-09
7.59822e-07
1.29965e-15
5.39041e-09
7.70509e-07
-2.63676e-09
5.39041e-09
7.70509e-07
-4.86517e-09
5.21774e-09
7.59822e-07
-6.32151e-09
4.86517e-09
7.38541e-07
-6.75114e-09
4.30362e-09
7.06724e-07
3.52458e-09
6.63788e-07
-6.06178e-09
7.22975e-09
1.90318e-09
6.89254e-07
-6.47748e-09
6.77627e-09
2.32997e-09
7.29677e-07
5.21774e-09
2.63676e-09
7.59822e-07
2.82905e-09
2.82905e-09
7.80037e-07
1.64535e-15
2.92262e-09
7.90195e-07
-2.82904e-09
2.92262e-09
7.90195e-07
-5.21773e-09
2.82905e-09
7.80037e-07
-6.77626e-09
2.63676e-09
7.59822e-07
-7.22975e-09
2.32996e-09
7.29677e-07
1.90318e-09
6.89254e-07
-6.47748e-09
7.47138e-09
-7.40261e-16
7.01952e-07
-6.69098e-09
7.00182e-09
2.20041e-15
7.41177e-07
5.39041e-09
2.84486e-15
7.70509e-07
2.92262e-09
2.61313e-15
7.90195e-07
1.26463e-15
2.03763e-15
8.00089e-07
-2.92261e-09
1.27456e-15
8.00089e-07
-5.39041e-09
4.56886e-16
7.90195e-07
-7.00182e-09
-4.37177e-16
7.70509e-07
-7.47138e-09
-6.76809e-16
7.41177e-07
5.56106e-16
7.01952e-07
-6.69097e-09
7.47138e-09
-1.90318e-09
7.01952e-07
-6.69097e-09
7.00182e-09
-2.32996e-09
7.41177e-07
5.39041e-09
-2.63676e-09
7.70509e-07
2.92261e-09
-2.82904e-09
7.90195e-07
4.93374e-16
-2.92261e-09
8.00089e-07
-2.92261e-09
-2.92261e-09
8.00089e-07
-5.39041e-09
-2.82905e-09
7.90195e-07
-7.00182e-09
-2.63676e-09
7.70509e-07
-7.47138e-09
-2.32997e-09
7.41177e-07
-1.90318e-09
7.01952e-07
-6.69097e-09
7.22975e-09
-3.52459e-09
6.89254e-07
-6.47748e-09
6.77627e-09
-4.30362e-09
7.29677e-07
5.21773e-09
-4.86517e-09
7.59822e-07
2.82905e-09
-5.21773e-09
7.80037e-07
-5.43167e-16
-5.39041e-09
7.90195e-07
-2.82905e-09
-5.39041e-09
7.90195e-07
-5.21773e-09
-5.21773e-09
7.80037e-07
-6.77627e-09
-4.86517e-09
7.59822e-07
-7.22975e-09
-4.30362e-09
7.29677e-07
-3.52458e-09
6.89254e-07
-6.47748e-09
6.75114e-09
-4.61222e-09
6.63788e-07
-6.06178e-09
6.32151e-09
-5.60194e-09
7.06724e-07
4.86517e-09
-6.32151e-09
7.38541e-07
2.63676e-09
-6.77627e-09
7.59822e-07
-1.22607e-15
-7.00182e-09
7.70509e-07
-2.63676e-09
-7.00182e-09
7.70509e-07
-4.86517e-09
-6.77627e-09
7.59822e-07
-6.32151e-09
-6.32151e-09
7.38541e-07
-6.75114e-09
-5.60194e-09
7.06724e-07
-4.61222e-09
6.63788e-07
-6.06178e-09
6.00313e-09
-4.95574e-09
6.25117e-07
-5.4622e-09
5.60194e-09
-6.00313e-09
6.72202e-07
4.30362e-09
-6.75114e-09
7.06724e-07
2.32996e-09
-7.22975e-09
7.29677e-07
-9.5222e-16
-7.47138e-09
7.41177e-07
-2.32997e-09
-7.47138e-09
7.41177e-07
-4.30362e-09
-7.22975e-09
7.29677e-07
-5.60194e-09
-6.75114e-09
7.06724e-07
-6.00313e-09
-6.00313e-09
6.72202e-07
-4.95574e-09
6.25117e-07
-5.4622e-09
4.95574e-09
5.72086e-07
-4.56397e-09
-4.56397e-09
4.61222e-09
6.25117e-07
-5.4622e-09
3.52458e-09
6.63788e-07
-6.06178e-09
1.90318e-09
6.89254e-07
-6.47748e-09
1.15834e-15
7.01952e-07
-6.69097e-09
-1.90318e-09
7.01952e-07
-6.69098e-09
-3.52458e-09
6.89254e-07
-6.47748e-09
-4.61222e-09
6.63788e-07
-6.06178e-09
-4.95574e-09
6.25117e-07
-5.4622e-09
5.72086e-07
-4.56397e-09
-4.56397e-09
1.67105e-09
1.67105e-09
5.71661e-07
-1.45858e-09
-1.45858e-09
1.60782e-09
2.10224e-09
6.24892e-07
-1.81429e-09
1.25402e-09
2.41535e-09
6.63784e-07
-2.05759e-09
6.85103e-10
2.62096e-09
6.89432e-07
-2.22987e-09
-4.66956e-16
2.7249e-09
7.0223e-07
-2.31724e-09
-6.85103e-10
2.7249e-09
7.0223e-07
-2.31724e-09
-1.25402e-09
2.62096e-09
6.89432e-07
-2.22986e-09
-1.60782e-09
2.41535e-09
6.63784e-07
-2.05759e-09
-1.67105e-09
2.10224e-09
6.24892e-07
-1.81429e-09
1.67105e-09
5.71661e-07
-1.45858e-09
-1.45858e-09
2.10224e-09
1.60782e-09
6.24892e-07
-1.81429e-09
2.02515e-09
2.02515e-09
6.72357e-07
1.5859e-09
2.33452e-09
7.07244e-07
8.67764e-10
2.53492e-09
7.30481e-07
-6.64586e-16
2.63525e-09
7.42134e-07
-8.67767e-10
2.63524e-09
7.42134e-07
-1.5859e-09
2.53492e-09
7.30481e-07
-2.02516e-09
2.33452e-09
7.07244e-07
-2.10224e-09
2.02516e-09
6.72357e-07
1.60782e-09
6.24892e-07
-1.81429e-09
2.41535e-09
1.25402e-09
6.63784e-07
-2.05759e-09
2.33452e-09
1.5859e-09
7.07244e-07
1.83186e-09
1.83186e-09
7.39547e-07
1.00347e-09
1.99048e-09
7.61195e-07
7.04684e-16
2.06924e-09
7.72078e-07
-1.00347e-09
2.06924e-09
7.72078e-07
-1.83186e-09
1.99048e-09
7.61195e-07
-2.33452e-09
1.83186e-09
7.39547e-07
-2.41535e-09
1.5859e-09
7.07244e-07
1.25402e-09
6.63784e-07
-2.05759e-09
2.62096e-09
6.85103e-10
6.89432e-07
-2.22987e-09
2.53492e-09
8.67766e-10
7.30481e-07
1.99048e-09
1.00347e-09
7.61195e-07
1.09105e-09
1.09105e-09
7.81835e-07
1.51247e-15
1.13437e-09
7.92221e-07
-1.09104e-09
1.13437e-09
7.92221e-07
-1.99048e-09
1.09105e-09
7.81835e-07
-2.53492e-09
1.00347e-09
7.61195e-07
-2.62096e-09
8.67767e-10
7.30481e-07
6.85102e-10
6.89432e-07
-2.22987e-09
2.7249e-09
-6.91188e-16
7.0223e-07
-2.31724e-09
2.63525e-09
-5.24954e-16
7.42134e-07
2.06924e-09
1.4625e-17
7.72078e-07
1.13437e-09
1.0535e-15
7.92221e-07
1.77638e-15
1.55467e-15
8.02357e-07
-1.13437e-09
1.63686e-15
8.02357e-07
-2.06924e-09
1.61072e-15
7.92221e-07
-2.63525e-09
1.73412e-15
7.72078e-07
-2.7249e-09
1.12835e-15
7.42134e-07
-9.96027e-16
7.0223e-07
-2.31724e-09
2.7249e-09
-6.85104e-10
7.0223e-07
-2.31724e-09
2.63524e-09
-8.67767e-10
7.42134e-07
2.06924e-09
-1.00347e-09
7.72078e-07
1.13437e-09
-1.09104e-09
7.92221e-07
2.02013e-15
-1.13437e-09
8.02357e-07
-1.13437e-09
-1.13437e-09
8.02357e-07
-2.06924e-09
-1.09104e-09
7.92221e-07
-2.63524e-09
-1.00347e-09
7.72078e-07
-2.7249e-09
-8.67765e-10
7.42134e-07
-6.85103e-10
7.0223e-07
-2.31724e-09
2.62096e-09
-1.25402e-09
6.89432e-07
-2.22986e-09
2.53492e-09
-1.5859e-09
7.30481e-07
1.99048e-09
-1.83187e-09
7.61195e-07
1.09105e-09
-1.99048e-09
7.81835e-07
1.78907e-15
-2.06924e-09
7.92221e-07
-1.09104e-09
-2.06924e-09
7.92221e-07
-1.99048e-09
-1.99047e-09
7.81835e-07
-2.53492e-09
-1.83186e-09
7.61195e-07
-2.62096e-09
-1.5859e-09
7.30481e-07
-1.25402e-09
6.89432e-07
-2.22986e-09
2.41535e-09
-1.60782e-09
6.63784e-07
-2.05759e-09
2.33452e-09
-2.02516e-09
7.07244e-07
1.83186e-09
-2.33452e-09
7.39547e-07
1.00347e-09
-2.53492e-09
7.61195e-07
1.98638e-15
-2.63524e-09
7.72078e-07
-1.00347e-09
-2.63524e-09
7.72078e-07
-1.83186e-09
-2.53491e-09
7.61195e-07
-2.33452e-09
-2.33451e-09
7.39547e-07
-2.41535e-09
-2.02516e-09
7.07244e-07
-1.60782e-09
6.63784e-07
-2.05759e-09
2.10224e-09
-1.67105e-09
6.24892e-07
-1.81429e-09
2.02516e-09
-2.10225e-09
6.72357e-07
1.5859e-09
-2.41535e-09
7.07244e-07
8.67769e-10
-2.62096e-09
7.30481e-07
2.10279e-15
-2.7249e-09
7.42134e-07
-8.67763e-10
-2.7249e-09
7.42134e-07
-1.5859e-09
-2.62096e-09
7.30481e-07
-2.02515e-09
-2.41535e-09
7.07244e-07
-2.10224e-09
-2.10224e-09
6.72357e-07
-1.67105e-09
6.24892e-07
-1.81429e-09
1.67105e-09
5.71661e-07
-1.45858e-09
-1.45858e-09
1.60782e-09
6.24892e-07
-1.81429e-09
1.25402e-09
6.63784e-07
-2.0576e-09
6.85101e-10
6.89432e-07
-2.22987e-09
-3.54437e-16
7.0223e-07
-2.31724e-09
-6.851e-10
7.0223e-07
-2.31724e-09
-1.25401e-09
6.89432e-07
-2.22986e-09
-1.60781e-09
6.63784e-07
-2.05759e-09
-1.67105e-09
6.24892e-07
-1.81429e-09
5.71661e-07
-1.45858e-09
-1.45858e-09
5.24281e-10
5.24283e-10
5.71489e-07
-4.38173e-10
-4.38174e-10
5.22875e-10
6.93609e-10
6.24773e-07
-5.73302e-10
4.16542e-10
8.20125e-10
6.63735e-07
-6.65329e-10
2.30505e-10
9.06126e-10
6.89446e-07
-7.33719e-10
-2.3431e-16
9.50044e-10
7.02278e-07
-7.68329e-10
-2.30506e-10
9.50045e-10
7.02278e-07
-7.68329e-10
-4.16544e-10
9.06126e-10
6.89446e-07
-7.33717e-10
-5.22875e-10
8.20119e-10
6.63735e-07
-6.65326e-10
-5.24278e-10
6.93604e-10
6.24773e-07
-5.733e-10
5.24281e-10
5.71489e-07
-4.38171e-10
-4.38171e-10
6.93609e-10
5.22878e-10
6.24773e-07
-5.73302e-10
6.90192e-10
6.9019e-10
6.72363e-07
5.51913e-10
8.19239e-10
7.07383e-07
3.05654e-10
9.05755e-10
7.30728e-07
1.49622e-15
9.49707e-10
7.4244e-07
-3.05651e-10
9.49708e-10
7.4244e-07
-5.51909e-10
9.05754e-10
7.30728e-07
-6.90188e-10
8.19235e-10
7.07383e-07
-6.93605e-10
6.90185e-10
6.72363e-07
5.22875e-10
6.24773e-07
-5.733e-10
8.2013e-10
4.16543e-10
6.63735e-07
-6.65331e-10
8.19244e-10
5.51912e-10
7.07383e-07
6.56602e-10
6.56599e-10
7.39872e-07
3.64015e-10
7.2646e-10
7.61667e-07
1.96333e-15
7.61734e-10
7.7263e-07
-3.64011e-10
7.61734e-10
7.7263e-07
-6.56597e-10
7.26458e-10
7.61667e-07
-8.19239e-10
6.56597e-10
7.39872e-07
-8.20126e-10
5.51909e-10
7.07383e-07
4.16539e-10
6.63735e-07
-6.65327e-10
9.0613e-10
2.30504e-10
6.89446e-07
-7.33721e-10
9.05757e-10
3.05654e-10
7.30728e-07
7.2646e-10
3.64015e-10
7.61667e-07
4.02989e-10
4.02989e-10
7.82482e-07
1.54736e-15
4.22615e-10
7.92963e-07
-4.02986e-10
4.22615e-10
7.92963e-07
-7.26458e-10
4.02988e-10
7.82482e-07
-9.05755e-10
3.64013e-10
7.61667e-07
-9.06127e-10
3.05651e-10
7.30728e-07
2.30502e-10
6.89446e-07
-7.33719e-10
9.50045e-10
-8.99852e-16
7.02278e-07
-7.6833e-10
9.49707e-10
2.12388e-15
7.4244e-07
7.61733e-10
2.54866e-15
7.7263e-07
4.22614e-10
2.24305e-15
7.92963e-07
1.23871e-15
1.9825e-15
8.03203e-07
-4.22611e-10
1.37526e-15
8.03203e-07
-7.61731e-10
4.70695e-16
7.92963e-07
-9.49704e-10
4.26509e-17
7.7263e-07
-9.50043e-10
-1.61719e-16
7.4244e-07
2.18082e-16
7.02278e-07
-7.68331e-10
9.50045e-10
-2.30506e-10
7.02278e-07
-7.6833e-10
9.49707e-10
-3.0565e-10
7.4244e-07
7.61733e-10
-3.64009e-10
7.7263e-07
4.22613e-10
-4.02985e-10
7.92963e-07
4.70019e-16
-4.22611e-10
8.03203e-07
-4.22612e-10
-4.22612e-10
8.03203e-07
-7.61731e-10
-4.02987e-10
7.92963e-07
-9.49705e-10
-3.64013e-10
7.7263e-07
-9.50043e-10
-3.05651e-10
7.4244e-07
-2.305e-10
7.02278e-07
-7.68332e-10
9.06127e-10
-4.16545e-10
6.89446e-07
-7.33718e-10
9.05755e-10
-5.51909e-10
7.30728e-07
7.26458e-10
-6.56593e-10
7.61667e-07
4.02988e-10
-7.26456e-10
7.82482e-07
6.73427e-18
-7.6173e-10
7.92963e-07
-4.02988e-10
-7.61731e-10
7.92963e-07
-7.26458e-10
-7.26459e-10
7.82482e-07
-9.05754e-10
-6.56598e-10
7.61667e-07
-9.06127e-10
-5.51908e-10
7.30728e-07
-4.16537e-10
6.89446e-07
-7.33718e-10
8.20122e-10
-5.22877e-10
6.63735e-07
-6.65327e-10
8.19238e-10
-6.90187e-10
7.07383e-07
6.56598e-10
-8.19234e-10
7.39872e-07
3.64013e-10
-9.05753e-10
7.61667e-07
2.41873e-16
-9.49704e-10
7.7263e-07
-3.64012e-10
-9.49705e-10
7.7263e-07
-6.56596e-10
-9.05756e-10
7.61667e-07
-8.19236e-10
-8.19239e-10
7.39872e-07
-8.20124e-10
-6.90183e-10
7.07383e-07
-5.22873e-10
6.63735e-07
-6.65325e-10
6.93604e-10
-5.2428e-10
6.24773e-07
-5.73301e-10
6.90184e-10
-6.93603e-10
6.72363e-07
5.51906e-10
-8.20121e-10
7.07383e-07
3.05649e-10
-9.06126e-10
7.30728e-07
-5.05241e-16
-9.50043e-10
7.4244e-07
-3.05651e-10
-9.50045e-10
7.4244e-07
-5.51909e-10
-9.06129e-10
7.30728e-07
-6.90187e-10
-8.20125e-10
7.07383e-07
-6.93604e-10
-6.93603e-10
6.72363e-07
-5.24279e-10
6.24773e-07
-5.73299e-10
5.24278e-10
5.71489e-07
-4.38171e-10
-4.38171e-10
5.22873e-10
6.24773e-07
-5.733e-10
4.16538e-10
6.63735e-07
-6.65325e-10
2.30502e-10
6.89446e-07
-7.33719e-10
2.91607e-16
7.02278e-07
-7.68331e-10
-2.30503e-10
7.02278e-07
-7.68331e-10
-4.16542e-10
6.89446e-07
-7.33719e-10
-5.22876e-10
6.63735e-07
-6.65327e-10
-5.24279e-10
6.24773e-07
-5.73299e-10
5.71489e-07
-4.38171e-10
-4.38171e-10
1.64356e-10
1.64353e-10
5.71428e-07
-1.33905e-10
-1.33904e-10
1.67573e-10
2.24482e-10
6.24726e-07
-1.80806e-10
1.35046e-10
2.70373e-10
6.6371e-07
-2.12238e-10
7.53087e-11
3.02612e-10
6.8944e-07
-2.36866e-10
-2.74647e-16
3.19225e-10
7.02284e-07
-2.49222e-10
-7.53093e-11
3.19224e-10
7.02284e-07
-2.49221e-10
-1.35045e-10
3.0261e-10
6.8944e-07
-2.36864e-10
-1.67571e-10
2.70375e-10
6.6371e-07
-2.1224e-10
-1.64357e-10
2.24488e-10
6.24726e-07
-1.80808e-10
1.64355e-10
5.71428e-07
-1.33906e-10
-1.33906e-10
2.24484e-10
1.67567e-10
6.24726e-07
-1.80806e-10
2.28149e-10
2.28145e-10
6.72356e-07
1.84997e-10
2.76552e-10
7.0742e-07
1.03318e-10
3.1007e-10
7.30802e-07
-1.0507e-15
3.27361e-10
7.42535e-07
-1.03319e-10
3.27359e-10
7.42535e-07
-1.85e-10
3.10069e-10
7.30802e-07
-2.28154e-10
2.76554e-10
7.0742e-07
-2.24489e-10
2.28151e-10
6.72356e-07
1.67567e-10
6.24726e-07
-1.80807e-10
2.7037e-10
1.35042e-10
6.6371e-07
-2.12236e-10
2.76546e-10
1.84995e-10
7.0742e-07
2.25181e-10
2.25185e-10
7.39975e-07
1.26002e-10
2.52903e-10
7.61823e-07
-8.17491e-16
2.6715e-10
7.72816e-07
-1.26004e-10
2.67149e-10
7.72816e-07
-2.25186e-10
2.52904e-10
7.61823e-07
-2.76552e-10
2.25187e-10
7.39975e-07
-2.70375e-10
1.84998e-10
7.0742e-07
1.3504e-10
6.6371e-07
-2.12239e-10
3.02607e-10
7.53074e-11
6.8944e-07
-2.36863e-10
3.10065e-10
1.03317e-10
7.30802e-07
2.529e-10
1.26003e-10
7.61823e-07
1.41675e-10
1.41676e-10
7.82705e-07
-4.73365e-17
1.49719e-10
7.93222e-07
-1.41675e-10
1.49719e-10
7.93222e-07
-2.52902e-10
1.41677e-10
7.82705e-07