/*--------------------------------*- C++ -*----------------------------------*\
| =========                 |                                                 |
| \\      /  F ield         | OpenFOAM: The Open Source CFD Toolbox           |
|  \\    /   O peration     | Version:  2412                                  |
|   \\  /    A nd           | Website:  www.openfoam.com                      |
|    \\/     M anipulation  |                                                 |
\*---------------------------------------------------------------------------*/
FoamFile
{
    version     2.0;
    format      ascii;
    arch        "LSB;label=32;scalar=64";
    class       volVectorField;
    location    "3";
    object      U;
}
// * * * * * * * * * * * * * * * * * * * * * * * * * * * * * * * * * * * * * //

dimensions      [0 1 -1 0 0 0 0];

internalField   nonuniform List<vector> 
15000
(
(0.00109984 0.00109984 0.0106073)
(0.000806688 0.00102013 0.010573)
(0.000547306 0.00099613 0.0105313)
(0.000320835 0.000972086 0.0104982)
(0.000105195 0.00096134 0.0104809)
(-0.000105195 0.00096134 0.0104809)
(-0.000320835 0.000972086 0.0104982)
(-0.000547306 0.00099613 0.0105313)
(-0.000806688 0.00102013 0.010573)
(-0.00109984 0.00109984 0.0106073)
(0.00102013 0.000806688 0.010573)
(0.000756847 0.000756847 0.0105077)
(0.000517638 0.000724283 0.0104486)
(0.000301872 0.000701635 0.0104078)
(9.8999e-05 0.000690875 0.0103874)
(-9.8999e-05 0.000690875 0.0103874)
(-0.000301872 0.000701635 0.0104078)
(-0.000517638 0.000724283 0.0104486)
(-0.000756847 0.000756847 0.0105077)
(-0.00102013 0.000806688 0.010573)
(0.00099613 0.000547306 0.0105313)
(0.000724283 0.000517638 0.0104486)
(0.000492159 0.000492159 0.0103831)
(0.000285464 0.000473881 0.0103401)
(9.34457e-05 0.000464787 0.0103191)
(-9.34457e-05 0.000464787 0.0103191)
(-0.000285464 0.000473881 0.0103401)
(-0.000492159 0.000492159 0.0103831)
(-0.000724283 0.000517638 0.0104486)
(-0.00099613 0.000547306 0.0105313)
(0.000972086 0.000320835 0.0104982)
(0.000701635 0.000301872 0.0104078)
(0.000473881 0.000285464 0.0103401)
(0.000273635 0.000273635 0.0102969)
(8.94108e-05 0.000267678 0.010276)
(-8.94108e-05 0.000267678 0.010276)
(-0.000273635 0.000273635 0.0102969)
(-0.000473881 0.000285464 0.0103401)
(-0.000701635 0.000301872 0.0104078)
(-0.000972086 0.000320835 0.0104982)
(0.00096134 0.000105195 0.0104809)
(0.000690875 9.8999e-05 0.0103874)
(0.000464787 9.34457e-05 0.0103191)
(0.000267678 8.94108e-05 0.010276)
(8.73701e-05 8.73701e-05 0.0102552)
(-8.73701e-05 8.73701e-05 0.0102552)
(-0.000267678 8.94108e-05 0.010276)
(-0.000464787 9.34457e-05 0.0103191)
(-0.000690875 9.8999e-05 0.0103874)
(-0.00096134 0.000105195 0.0104809)
(0.00096134 -0.000105195 0.0104809)
(0.000690875 -9.8999e-05 0.0103874)
(0.000464787 -9.34457e-05 0.0103191)
(0.000267678 -8.94108e-05 0.010276)
(8.73701e-05 -8.73701e-05 0.0102552)
(-8.73701e-05 -8.73701e-05 0.0102552)
(-0.000267678 -8.94108e-05 0.010276)
(-0.000464787 -9.34457e-05 0.0103191)
(-0.000690875 -9.8999e-05 0.0103874)
(-0.00096134 -0.000105195 0.0104809)
(0.000972086 -0.000320835 0.0104982)
(0.000701635 -0.000301872 0.0104078)
(0.000473881 -0.000285464 0.0103401)
(0.000273635 -0.000273635 0.0102969)
(8.94108e-05 -0.000267678 0.010276)
(-8.94108e-05 -0.000267678 0.010276)
(-0.000273635 -0.000273635 0.0102969)
(-0.000473881 -0.000285464 0.0103401)
(-0.000701635 -0.000301872 0.0104078)
(-0.000972086 -0.000320835 0.0104982)
(0.00099613 -0.000547306 0.0105313)
(0.000724283 -0.000517638 0.0104486)
(0.000492159 -0.000492159 0.0103831)
(0.000285464 -0.000473881 0.0103401)
(9.34457e-05 -0.000464787 0.0103191)
(-9.34457e-05 -0.000464787 0.0103191)
(-0.000285464 -0.000473881 0.0103401)
(-0.000492159 -0.000492159 0.0103831)
(-0.000724283 -0.000517638 0.0104486)
(-0.00099613 -0.000547306 0.0105313)
(0.00102013 -0.000806688 0.010573)
(0.000756847 -0.000756847 0.0105077)
(0.000517638 -0.000724283 0.0104486)
(0.000301872 -0.000701635 0.0104078)
(9.8999e-05 -0.000690875 0.0103874)
(-9.8999e-05 -0.000690875 0.0103874)
(-0.000301872 -0.000701635 0.0104078)
(-0.000517638 -0.000724283 0.0104486)
(-0.000756847 -0.000756847 0.0105077)
(-0.00102013 -0.000806688 0.010573)
(0.00109984 -0.00109984 0.0106073)
(0.000806688 -0.00102013 0.010573)
(0.000547306 -0.00099613 0.0105313)
(0.000320835 -0.000972086 0.0104982)
(0.000105195 -0.00096134 0.0104809)
(-0.000105195 -0.00096134 0.0104809)
(-0.000320835 -0.000972086 0.0104982)
(-0.000547306 -0.00099613 0.0105313)
(-0.000806688 -0.00102013 0.010573)
(-0.00109984 -0.00109984 0.0106073)
(0.000477585 0.000477585 0.0122947)
(0.000381175 0.00050444 0.0121885)
(0.00027326 0.000528395 0.0120729)
(0.000165442 0.00054206 0.0119846)
(5.5021e-05 0.000549897 0.0119389)
(-5.5021e-05 0.000549897 0.0119389)
(-0.000165442 0.00054206 0.0119846)
(-0.00027326 0.000528395 0.0120729)
(-0.000381175 0.00050444 0.0121885)
(-0.000477585 0.000477585 0.0122947)
(0.00050444 0.000381175 0.0121885)
(0.000402894 0.000402894 0.0120055)
(0.000291317 0.000419758 0.0118468)
(0.000176451 0.000430095 0.0117381)
(5.89621e-05 0.00043572 0.011684)
(-5.89621e-05 0.00043572 0.011684)
(-0.000176451 0.000430095 0.0117381)
(-0.000291317 0.000419758 0.0118468)
(-0.000402894 0.000402894 0.0120055)
(-0.00050444 0.000381175 0.0121885)
(0.000528395 0.00027326 0.0120729)
(0.000419758 0.000291317 0.0118468)
(0.000304161 0.000304161 0.0116701)
(0.000184297 0.000312016 0.0115543)
(6.16919e-05 0.000316059 0.0114976)
(-6.16919e-05 0.000316059 0.0114976)
(-0.000184297 0.000312016 0.0115543)
(-0.000304161 0.000304161 0.0116701)
(-0.000419758 0.000291317 0.0118468)
(-0.000528395 0.00027326 0.0120729)
(0.00054206 0.000165442 0.0119846)
(0.000430095 0.000176451 0.0117381)
(0.000312016 0.000184297 0.0115543)
(0.000189184 0.000189184 0.0114362)
(6.33879e-05 0.000191667 0.0113789)
(-6.33879e-05 0.000191667 0.0113789)
(-0.000189184 0.000189184 0.0114362)
(-0.000312016 0.000184297 0.0115543)
(-0.000430095 0.000176451 0.0117381)
(-0.00054206 0.000165442 0.0119846)
(0.000549897 5.5021e-05 0.0119389)
(0.00043572 5.89621e-05 0.011684)
(0.000316059 6.16919e-05 0.0114976)
(0.000191667 6.33879e-05 0.0113789)
(6.42415e-05 6.42415e-05 0.0113214)
(-6.42415e-05 6.42415e-05 0.0113214)
(-0.000191667 6.33879e-05 0.0113789)
(-0.000316059 6.16919e-05 0.0114976)
(-0.00043572 5.89621e-05 0.011684)
(-0.000549897 5.5021e-05 0.0119389)
(0.000549897 -5.5021e-05 0.0119389)
(0.00043572 -5.89621e-05 0.011684)
(0.000316059 -6.16919e-05 0.0114976)
(0.000191667 -6.33879e-05 0.0113789)
(6.42415e-05 -6.42415e-05 0.0113214)
(-6.42415e-05 -6.42415e-05 0.0113214)
(-0.000191667 -6.33879e-05 0.0113789)
(-0.000316059 -6.16919e-05 0.0114976)
(-0.00043572 -5.89621e-05 0.011684)
(-0.000549897 -5.5021e-05 0.0119389)
(0.00054206 -0.000165442 0.0119846)
(0.000430095 -0.000176451 0.0117381)
(0.000312016 -0.000184297 0.0115543)
(0.000189184 -0.000189184 0.0114362)
(6.33879e-05 -0.000191667 0.0113789)
(-6.33879e-05 -0.000191667 0.0113789)
(-0.000189184 -0.000189184 0.0114362)
(-0.000312016 -0.000184297 0.0115543)
(-0.000430095 -0.000176451 0.0117381)
(-0.00054206 -0.000165442 0.0119846)
(0.000528395 -0.000273259 0.0120729)
(0.000419758 -0.000291317 0.0118468)
(0.000304161 -0.000304161 0.0116701)
(0.000184297 -0.000312016 0.0115543)
(6.16919e-05 -0.000316059 0.0114976)
(-6.16919e-05 -0.000316059 0.0114976)
(-0.000184297 -0.000312016 0.0115543)
(-0.000304161 -0.000304161 0.0116701)
(-0.000419758 -0.000291317 0.0118468)
(-0.000528395 -0.00027326 0.0120729)
(0.00050444 -0.000381175 0.0121885)
(0.000402894 -0.000402894 0.0120055)
(0.000291317 -0.000419758 0.0118468)
(0.000176451 -0.000430095 0.0117381)
(5.89621e-05 -0.00043572 0.011684)
(-5.89621e-05 -0.00043572 0.011684)
(-0.000176451 -0.000430095 0.0117381)
(-0.000291317 -0.000419758 0.0118468)
(-0.000402894 -0.000402894 0.0120055)
(-0.00050444 -0.000381175 0.0121885)
(0.000477585 -0.000477585 0.0122947)
(0.000381175 -0.00050444 0.0121885)
(0.000273259 -0.000528395 0.0120729)
(0.000165442 -0.00054206 0.0119846)
(5.5021e-05 -0.000549897 0.0119389)
(-5.5021e-05 -0.000549897 0.0119389)
(-0.000165442 -0.00054206 0.0119846)
(-0.00027326 -0.000528395 0.0120729)
(-0.000381175 -0.00050444 0.0121885)
(-0.000477585 -0.000477585 0.0122947)
(0.000265914 0.000265914 0.0121389)
(0.000224189 0.0002955 0.0121702)
(0.000169439 0.000319546 0.0121476)
(0.000105633 0.000334769 0.0121181)
(3.56608e-05 0.000342795 0.0121009)
(-3.56608e-05 0.000342795 0.0121009)
(-0.000105633 0.000334769 0.0121181)
(-0.000169439 0.000319546 0.0121476)
(-0.000224189 0.0002955 0.0121702)
(-0.000265914 0.000265914 0.0121389)
(0.0002955 0.000224189 0.0121702)
(0.000252384 0.000252384 0.012124)
(0.000191548 0.000272646 0.0120596)
(0.000119372 0.000285238 0.0120103)
(4.04233e-05 0.000291608 0.011985)
(-4.04233e-05 0.000291608 0.011985)
(-0.000119372 0.000285238 0.0120103)
(-0.000191548 0.000272645 0.0120596)
(-0.000252383 0.000252383 0.012124)
(-0.0002955 0.000224189 0.0121702)
(0.000319546 0.000169439 0.0121476)
(0.000272646 0.000191548 0.0120596)
(0.000206811 0.000206811 0.0119767)
(0.000128644 0.000216004 0.0119193)
(4.35718e-05 0.000220472 0.0118906)
(-4.35718e-05 0.000220472 0.0118906)
(-0.000128644 0.000216004 0.0119193)
(-0.000206811 0.000206811 0.0119767)
(-0.000272645 0.000191548 0.0120596)
(-0.000319546 0.000169439 0.0121476)
(0.000334769 0.000105633 0.0121181)
(0.000285238 0.000119372 0.0120103)
(0.000216004 0.000128644 0.0119193)
(0.000134134 0.000134134 0.0118582)
(4.54119e-05 0.000136744 0.0118279)
(-4.54118e-05 0.000136744 0.0118279)
(-0.000134134 0.000134134 0.0118582)
(-0.000216004 0.000128644 0.0119193)
(-0.000285238 0.000119372 0.0120103)
(-0.000334769 0.000105633 0.0121181)
(0.000342795 3.56608e-05 0.0121009)
(0.000291608 4.04233e-05 0.011985)
(0.000220471 4.35718e-05 0.0118906)
(0.000136744 4.54119e-05 0.0118279)
(4.62753e-05 4.62753e-05 0.0117969)
(-4.62753e-05 4.62753e-05 0.0117969)
(-0.000136744 4.54118e-05 0.0118279)
(-0.000220471 4.35718e-05 0.0118906)
(-0.000291608 4.04233e-05 0.011985)
(-0.000342795 3.56608e-05 0.0121009)
(0.000342795 -3.56608e-05 0.0121009)
(0.000291608 -4.04233e-05 0.011985)
(0.000220472 -4.35718e-05 0.0118906)
(0.000136744 -4.54118e-05 0.0118279)
(4.62753e-05 -4.62753e-05 0.0117969)
(-4.62753e-05 -4.62753e-05 0.0117969)
(-0.000136744 -4.54118e-05 0.0118279)
(-0.000220471 -4.35718e-05 0.0118906)
(-0.000291608 -4.04233e-05 0.011985)
(-0.000342795 -3.56608e-05 0.0121009)
(0.000334769 -0.000105633 0.0121181)
(0.000285238 -0.000119372 0.0120103)
(0.000216004 -0.000128644 0.0119193)
(0.000134134 -0.000134134 0.0118582)
(4.54118e-05 -0.000136744 0.0118279)
(-4.54118e-05 -0.000136744 0.0118279)
(-0.000134134 -0.000134134 0.0118582)
(-0.000216004 -0.000128644 0.0119193)
(-0.000285238 -0.000119372 0.0120103)
(-0.000334769 -0.000105633 0.0121181)
(0.000319546 -0.000169439 0.0121476)
(0.000272646 -0.000191548 0.0120596)
(0.000206811 -0.000206811 0.0119767)
(0.000128644 -0.000216004 0.0119193)
(4.35718e-05 -0.000220471 0.0118906)
(-4.35718e-05 -0.000220471 0.0118906)
(-0.000128644 -0.000216004 0.0119193)
(-0.000206811 -0.000206811 0.0119767)
(-0.000272646 -0.000191548 0.0120596)
(-0.000319546 -0.000169439 0.0121476)
(0.0002955 -0.000224189 0.0121702)
(0.000252383 -0.000252384 0.012124)
(0.000191548 -0.000272646 0.0120596)
(0.000119372 -0.000285238 0.0120103)
(4.04233e-05 -0.000291608 0.011985)
(-4.04233e-05 -0.000291608 0.011985)
(-0.000119372 -0.000285238 0.0120103)
(-0.000191548 -0.000272646 0.0120596)
(-0.000252384 -0.000252384 0.012124)
(-0.0002955 -0.000224189 0.0121702)
(0.000265914 -0.000265914 0.0121389)
(0.000224189 -0.0002955 0.0121702)
(0.000169439 -0.000319546 0.0121476)
(0.000105633 -0.000334769 0.0121181)
(3.56608e-05 -0.000342795 0.0121009)
(-3.56608e-05 -0.000342795 0.0121009)
(-0.000105633 -0.000334769 0.0121181)
(-0.000169439 -0.000319546 0.0121476)
(-0.000224189 -0.0002955 0.0121702)
(-0.000265914 -0.000265914 0.0121389)
(8.74226e-05 8.74226e-05 0.0122085)
(7.93366e-05 0.000108207 0.0122825)
(6.38673e-05 0.000124203 0.0122928)
(4.11794e-05 0.000135184 0.0122853)
(1.41253e-05 0.000140931 0.0122789)
(-1.41253e-05 0.000140931 0.0122789)
(-4.11794e-05 0.000135184 0.0122853)
(-6.38673e-05 0.000124203 0.0122928)
(-7.93366e-05 0.000108207 0.0122825)
(-8.74226e-05 8.74226e-05 0.0122085)
(0.000108207 7.93366e-05 0.0122825)
(9.95397e-05 9.95397e-05 0.0122885)
(7.98379e-05 0.000114773 0.0122624)
(5.14249e-05 0.000124846 0.0122378)
(1.76894e-05 0.000129993 0.0122244)
(-1.76894e-05 0.000129993 0.0122244)
(-5.14249e-05 0.000124846 0.0122378)
(-7.98379e-05 0.000114773 0.0122624)
(-9.95397e-05 9.95397e-05 0.0122885)
(-0.000108207 7.93366e-05 0.0122825)
(0.000124203 6.38673e-05 0.0122928)
(0.000114773 7.98379e-05 0.0122624)
(9.19097e-05 9.19097e-05 0.0122202)
(5.90735e-05 9.9778e-05 0.0121885)
(2.03239e-05 0.000103726 0.0121721)
(-2.03239e-05 0.000103726 0.0121721)
(-5.90735e-05 9.9778e-05 0.0121885)
(-9.19097e-05 9.19097e-05 0.0122202)
(-0.000114773 7.98379e-05 0.0122624)
(-0.000124203 6.38673e-05 0.0122928)
(0.000135184 4.11794e-05 0.0122853)
(0.000124846 5.14249e-05 0.0122378)
(9.9778e-05 5.90735e-05 0.0121885)
(6.40294e-05 6.40294e-05 0.0121534)
(2.20222e-05 6.64943e-05 0.0121355)
(-2.20222e-05 6.64943e-05 0.0121355)
(-6.40294e-05 6.40294e-05 0.0121534)
(-9.9778e-05 5.90735e-05 0.0121885)
(-0.000124846 5.14249e-05 0.0122378)
(-0.000135184 4.11794e-05 0.0122853)
(0.000140931 1.41253e-05 0.0122789)
(0.000129993 1.76894e-05 0.0122244)
(0.000103726 2.03239e-05 0.0121721)
(6.64943e-05 2.20222e-05 0.0121355)
(2.28623e-05 2.28623e-05 0.012117)
(-2.28623e-05 2.28623e-05 0.012117)
(-6.64943e-05 2.20222e-05 0.0121355)
(-0.000103726 2.03239e-05 0.0121721)
(-0.000129993 1.76894e-05 0.0122244)
(-0.000140931 1.41254e-05 0.0122789)
(0.000140931 -1.41253e-05 0.0122789)
(0.000129993 -1.76894e-05 0.0122244)
(0.000103726 -2.03239e-05 0.0121721)
(6.64943e-05 -2.20222e-05 0.0121355)
(2.28623e-05 -2.28623e-05 0.012117)
(-2.28623e-05 -2.28623e-05 0.012117)
(-6.64943e-05 -2.20222e-05 0.0121355)
(-0.000103726 -2.03239e-05 0.0121721)
(-0.000129993 -1.76894e-05 0.0122244)
(-0.000140931 -1.41253e-05 0.0122789)
(0.000135184 -4.11794e-05 0.0122853)
(0.000124846 -5.14249e-05 0.0122378)
(9.9778e-05 -5.90735e-05 0.0121885)
(6.40294e-05 -6.40294e-05 0.0121534)
(2.20222e-05 -6.64943e-05 0.0121355)
(-2.20222e-05 -6.64943e-05 0.0121355)
(-6.40294e-05 -6.40294e-05 0.0121534)
(-9.9778e-05 -5.90735e-05 0.0121885)
(-0.000124846 -5.14249e-05 0.0122378)
(-0.000135184 -4.11794e-05 0.0122853)
(0.000124203 -6.38673e-05 0.0122928)
(0.000114773 -7.98379e-05 0.0122624)
(9.19097e-05 -9.19097e-05 0.0122202)
(5.90735e-05 -9.9778e-05 0.0121885)
(2.03239e-05 -0.000103726 0.0121721)
(-2.03239e-05 -0.000103726 0.0121721)
(-5.90735e-05 -9.9778e-05 0.0121885)
(-9.19097e-05 -9.19097e-05 0.0122202)
(-0.000114773 -7.98379e-05 0.0122624)
(-0.000124203 -6.38673e-05 0.0122928)
(0.000108207 -7.93366e-05 0.0122825)
(9.95397e-05 -9.95397e-05 0.0122885)
(7.98379e-05 -0.000114772 0.0122624)
(5.14249e-05 -0.000124846 0.0122378)
(1.76894e-05 -0.000129993 0.0122244)
(-1.76894e-05 -0.000129993 0.0122244)
(-5.14249e-05 -0.000124846 0.0122378)
(-7.98379e-05 -0.000114773 0.0122624)
(-9.95398e-05 -9.95397e-05 0.0122885)
(-0.000108207 -7.93366e-05 0.0122825)
(8.74226e-05 -8.74226e-05 0.0122085)
(7.93366e-05 -0.000108207 0.0122825)
(6.38673e-05 -0.000124203 0.0122928)
(4.11794e-05 -0.000135184 0.0122853)
(1.41253e-05 -0.000140931 0.0122789)
(-1.41253e-05 -0.000140931 0.0122789)
(-4.11794e-05 -0.000135184 0.0122853)
(-6.38673e-05 -0.000124203 0.0122928)
(-7.93366e-05 -0.000108207 0.0122825)
(-8.74226e-05 -8.74226e-05 0.0122085)
(2.90712e-05 2.90712e-05 0.0121827)
(2.70714e-05 3.71621e-05 0.0122805)
(2.24648e-05 4.36058e-05 0.0123109)
(1.46898e-05 4.82667e-05 0.0123177)
(5.07458e-06 5.07355e-05 0.0123185)
(-5.07459e-06 5.07355e-05 0.0123185)
(-1.46898e-05 4.82667e-05 0.0123177)
(-2.24648e-05 4.36058e-05 0.0123109)
(-2.70714e-05 3.71621e-05 0.0122805)
(-2.90712e-05 2.90713e-05 0.0121827)
(3.71621e-05 2.70714e-05 0.0122805)
(3.56052e-05 3.56052e-05 0.0123183)
(2.94238e-05 4.23036e-05 0.0123175)
(1.92882e-05 4.69438e-05 0.0123103)
(6.69186e-06 4.93648e-05 0.0123056)
(-6.69185e-06 4.93649e-05 0.0123056)
(-1.92882e-05 4.69438e-05 0.0123103)
(-2.94237e-05 4.23036e-05 0.0123175)
(-3.56052e-05 3.56052e-05 0.0123183)
(-3.71621e-05 2.70714e-05 0.0122805)
(4.36058e-05 2.24648e-05 0.0123109)
(4.23036e-05 2.94238e-05 0.0123175)
(3.50164e-05 3.50164e-05 0.0123039)
(2.29689e-05 3.88618e-05 0.0122913)
(7.98072e-06 4.08464e-05 0.0122845)
(-7.98071e-06 4.08464e-05 0.0122845)
(-2.29689e-05 3.88618e-05 0.0122913)
(-3.50163e-05 3.50164e-05 0.0123039)
(-4.23036e-05 2.94238e-05 0.0123175)
(-4.36058e-05 2.24648e-05 0.0123109)
(4.82667e-05 1.46898e-05 0.0123177)
(4.69438e-05 1.92882e-05 0.0123103)
(3.88618e-05 2.29689e-05 0.0122913)
(2.5493e-05 2.5493e-05 0.0122763)
(8.8625e-06 2.67891e-05 0.0122683)
(-8.86248e-06 2.67891e-05 0.0122683)
(-2.5493e-05 2.5493e-05 0.0122763)
(-3.88617e-05 2.29689e-05 0.0122913)
(-4.69438e-05 1.92882e-05 0.0123103)
(-4.82667e-05 1.46898e-05 0.0123177)
(5.07355e-05 5.07458e-06 0.0123185)
(4.93648e-05 6.69187e-06 0.0123056)
(4.08464e-05 7.98073e-06 0.0122845)
(2.67891e-05 8.8625e-06 0.0122683)
(9.31386e-06 9.31387e-06 0.0122598)
(-9.31385e-06 9.31386e-06 0.0122598)
(-2.67891e-05 8.86249e-06 0.0122683)
(-4.08463e-05 7.98072e-06 0.0122845)
(-4.93648e-05 6.69185e-06 0.0123056)
(-5.07355e-05 5.07459e-06 0.0123185)
(5.07355e-05 -5.07459e-06 0.0123185)
(4.93649e-05 -6.69184e-06 0.0123056)
(4.08464e-05 -7.9807e-06 0.0122845)
(2.67891e-05 -8.86247e-06 0.0122683)
(9.31386e-06 -9.31384e-06 0.0122598)
(-9.31385e-06 -9.31385e-06 0.0122598)
(-2.67891e-05 -8.86249e-06 0.0122683)
(-4.08463e-05 -7.98072e-06 0.0122845)
(-4.93648e-05 -6.69186e-06 0.0123056)
(-5.07355e-05 -5.07458e-06 0.0123185)
(4.82667e-05 -1.46898e-05 0.0123177)
(4.69438e-05 -1.92881e-05 0.0123103)
(3.88617e-05 -2.29689e-05 0.0122913)
(2.5493e-05 -2.5493e-05 0.0122763)
(8.86248e-06 -2.67891e-05 0.0122683)
(-8.86249e-06 -2.67891e-05 0.0122683)
(-2.5493e-05 -2.5493e-05 0.0122763)
(-3.88617e-05 -2.29689e-05 0.0122913)
(-4.69437e-05 -1.92882e-05 0.0123103)
(-4.82667e-05 -1.46898e-05 0.0123177)
(4.36058e-05 -2.24648e-05 0.0123109)
(4.23037e-05 -2.94238e-05 0.0123175)
(3.50164e-05 -3.50164e-05 0.0123039)
(2.29689e-05 -3.88617e-05 0.0122913)
(7.98071e-06 -4.08463e-05 0.0122845)
(-7.98072e-06 -4.08463e-05 0.0122845)
(-2.29689e-05 -3.88617e-05 0.0122913)
(-3.50164e-05 -3.50163e-05 0.0123039)
(-4.23036e-05 -2.94238e-05 0.0123175)
(-4.36058e-05 -2.24648e-05 0.0123109)
(3.71621e-05 -2.70714e-05 0.0122805)
(3.56052e-05 -3.56052e-05 0.0123183)
(2.94238e-05 -4.23036e-05 0.0123175)
(1.92882e-05 -4.69438e-05 0.0123103)
(6.69185e-06 -4.93648e-05 0.0123056)
(-6.69186e-06 -4.93648e-05 0.0123056)
(-1.92882e-05 -4.69437e-05 0.0123103)
(-2.94238e-05 -4.23036e-05 0.0123175)
(-3.56052e-05 -3.56052e-05 0.0123183)
(-3.71621e-05 -2.70714e-05 0.0122805)
(2.90713e-05 -2.90713e-05 0.0121827)
(2.70714e-05 -3.71621e-05 0.0122805)
(2.24648e-05 -4.36058e-05 0.0123109)
(1.46898e-05 -4.82667e-05 0.0123177)
(5.0746e-06 -5.07355e-05 0.0123185)
(-5.07458e-06 -5.07355e-05 0.0123185)
(-1.46898e-05 -4.82667e-05 0.0123177)
(-2.24649e-05 -4.36058e-05 0.0123109)
(-2.70714e-05 -3.71621e-05 0.0122805)
(-2.90712e-05 -2.90712e-05 0.0121827)
(9.66536e-06 9.66536e-06 0.0121651)
(9.29362e-06 1.27994e-05 0.0122694)
(7.95944e-06 1.5314e-05 0.0123063)
(5.28314e-06 1.71688e-05 0.0123179)
(1.83946e-06 1.81528e-05 0.0123213)
(-1.83946e-06 1.81528e-05 0.0123213)
(-5.28312e-06 1.71688e-05 0.0123179)
(-7.95942e-06 1.5314e-05 0.0123063)
(-9.29361e-06 1.27994e-05 0.0122694)
(-9.66536e-06 9.66537e-06 0.0121651)
(1.27994e-05 9.29362e-06 0.0122694)
(1.27188e-05 1.27188e-05 0.0123181)
(1.07879e-05 1.54479e-05 0.0123269)
(7.17644e-06 1.73764e-05 0.0123267)
(2.50745e-06 1.83887e-05 0.0123256)
(-2.50746e-06 1.83887e-05 0.0123256)
(-7.17644e-06 1.73764e-05 0.0123267)
(-1.07879e-05 1.54479e-05 0.0123269)
(-1.27188e-05 1.27188e-05 0.0123181)
(-1.27994e-05 9.29362e-06 0.0122694)
(1.5314e-05 7.95944e-06 0.0123063)
(1.54479e-05 1.07879e-05 0.0123269)
(1.31169e-05 1.31169e-05 0.0123253)
(8.73409e-06 1.4754e-05 0.0123213)
(3.0564e-06 1.56077e-05 0.0123188)
(-3.05639e-06 1.56077e-05 0.0123188)
(-8.73409e-06 1.4754e-05 0.0123213)
(-1.31169e-05 1.31169e-05 0.0123253)
(-1.54479e-05 1.07879e-05 0.0123269)
(-1.5314e-05 7.95942e-06 0.0123063)
(1.71688e-05 5.28314e-06 0.0123179)
(1.73764e-05 7.17644e-06 0.0123267)
(1.4754e-05 8.73408e-06 0.0123213)
(9.82675e-06 9.82674e-06 0.0123158)
(3.44103e-06 1.03947e-05 0.0123127)
(-3.44101e-06 1.03947e-05 0.0123127)
(-9.82674e-06 9.82675e-06 0.0123158)
(-1.4754e-05 8.7341e-06 0.0123213)
(-1.73763e-05 7.17646e-06 0.0123267)
(-1.71688e-05 5.28313e-06 0.0123179)
(1.81528e-05 1.83946e-06 0.0123213)
(1.83887e-05 2.50746e-06 0.0123256)
(1.56077e-05 3.0564e-06 0.0123188)
(1.03947e-05 3.44103e-06 0.0123127)
(3.64057e-06 3.64057e-06 0.0123094)
(-3.64055e-06 3.64057e-06 0.0123094)
(-1.03947e-05 3.44103e-06 0.0123127)
(-1.56077e-05 3.05641e-06 0.0123188)
(-1.83887e-05 2.50747e-06 0.0123256)
(-1.81528e-05 1.83946e-06 0.0123213)
(1.81528e-05 -1.83947e-06 0.0123213)
(1.83887e-05 -2.50746e-06 0.0123256)
(1.56077e-05 -3.0564e-06 0.0123188)
(1.03948e-05 -3.44101e-06 0.0123127)
(3.64057e-06 -3.64055e-06 0.0123094)
(-3.64055e-06 -3.64055e-06 0.0123094)
(-1.03947e-05 -3.44101e-06 0.0123127)
(-1.56077e-05 -3.05639e-06 0.0123188)
(-1.83887e-05 -2.50746e-06 0.0123256)
(-1.81528e-05 -1.83947e-06 0.0123213)
(1.71688e-05 -5.28311e-06 0.0123179)
(1.73764e-05 -7.17643e-06 0.0123267)
(1.4754e-05 -8.73408e-06 0.0123213)
(9.82676e-06 -9.82673e-06 0.0123158)
(3.44103e-06 -1.03947e-05 0.0123127)
(-3.44101e-06 -1.03947e-05 0.0123127)
(-9.82673e-06 -9.82673e-06 0.0123158)
(-1.4754e-05 -8.73407e-06 0.0123213)
(-1.73764e-05 -7.17645e-06 0.0123267)
(-1.71688e-05 -5.28314e-06 0.0123179)
(1.5314e-05 -7.9594e-06 0.0123063)
(1.54479e-05 -1.07878e-05 0.0123269)
(1.31169e-05 -1.31168e-05 0.0123253)
(8.7341e-06 -1.4754e-05 0.0123213)
(3.05641e-06 -1.56077e-05 0.0123188)
(-3.05638e-06 -1.56077e-05 0.0123188)
(-8.73407e-06 -1.4754e-05 0.0123213)
(-1.31169e-05 -1.31169e-05 0.0123253)
(-1.54479e-05 -1.07879e-05 0.0123269)
(-1.5314e-05 -7.95944e-06 0.0123063)
(1.27995e-05 -9.29361e-06 0.0122694)
(1.27188e-05 -1.27187e-05 0.0123181)
(1.07879e-05 -1.54479e-05 0.0123269)
(7.17643e-06 -1.73763e-05 0.0123267)
(2.50747e-06 -1.83887e-05 0.0123256)
(-2.50744e-06 -1.83887e-05 0.0123256)
(-7.17645e-06 -1.73764e-05 0.0123267)
(-1.07879e-05 -1.54479e-05 0.0123269)
(-1.27188e-05 -1.27188e-05 0.0123181)
(-1.27994e-05 -9.29361e-06 0.0122694)
(9.66538e-06 -9.66536e-06 0.0121651)
(9.29363e-06 -1.27994e-05 0.0122694)
(7.95941e-06 -1.5314e-05 0.0123063)
(5.28311e-06 -1.71688e-05 0.0123179)
(1.83947e-06 -1.81528e-05 0.0123213)
(-1.83947e-06 -1.81528e-05 0.0123213)
(-5.28316e-06 -1.71688e-05 0.0123179)
(-7.95945e-06 -1.5314e-05 0.0123063)
(-9.2936e-06 -1.27994e-05 0.0122694)
(-9.66536e-06 -9.66534e-06 0.0121651)
(2.97659e-06 2.97659e-06 0.0121598)
(2.96731e-06 4.15501e-06 0.0122659)
(2.62506e-06 5.10434e-06 0.0123047)
(1.76946e-06 5.82725e-06 0.0123179)
(6.21222e-07 6.21051e-06 0.0123221)
(-6.21225e-07 6.21051e-06 0.0123221)
(-1.76946e-06 5.82727e-06 0.0123179)
(-2.62507e-06 5.10439e-06 0.0123047)
(-2.96732e-06 4.15505e-06 0.0122659)
(-2.97659e-06 2.9766e-06 0.0121598)
(4.155e-06 2.96732e-06 0.0122659)
(4.2814e-06 4.28141e-06 0.012318)
(3.73129e-06 5.35728e-06 0.0123299)
(2.5215e-06 6.13691e-06 0.0123321)
(8.87857e-07 6.54996e-06 0.0123323)
(-8.87838e-07 6.54996e-06 0.0123323)
(-2.52146e-06 6.13693e-06 0.0123321)
(-3.73129e-06 5.35733e-06 0.0123299)
(-4.28145e-06 4.28147e-06 0.012318)
(-4.15503e-06 2.96734e-06 0.0122659)
(5.10432e-06 2.62507e-06 0.0123047)
(5.35727e-06 3.7313e-06 0.0123299)
(4.67299e-06 4.67299e-06 0.0123326)
(3.16214e-06 5.35204e-06 0.0123317)
(1.11519e-06 5.71041e-06 0.0123308)
(-1.11516e-06 5.71041e-06 0.0123308)
(-3.16209e-06 5.35204e-06 0.0123317)
(-4.67296e-06 4.67299e-06 0.0123326)
(-5.35732e-06 3.73131e-06 0.0123299)
(-5.10438e-06 2.62509e-06 0.0123047)
(5.82724e-06 1.76946e-06 0.0123179)
(6.1369e-06 2.52151e-06 0.0123321)
(5.35204e-06 3.16215e-06 0.0123317)
(3.62315e-06 3.62316e-06 0.0123298)
(1.27867e-06 3.86588e-06 0.0123286)
(-1.27865e-06 3.86588e-06 0.0123286)
(-3.62312e-06 3.62315e-06 0.0123298)
(-5.35201e-06 3.16212e-06 0.0123317)
(-6.13691e-06 2.52149e-06 0.0123321)
(-5.82726e-06 1.76948e-06 0.0123179)
(6.21051e-06 6.21221e-07 0.0123221)
(6.54995e-06 8.87868e-07 0.0123323)
(5.7104e-06 1.1152e-06 0.0123308)
(3.86587e-06 1.27868e-06 0.0123286)
(1.36461e-06 1.36462e-06 0.0123273)
(-1.3646e-06 1.36462e-06 0.0123273)
(-3.86585e-06 1.27867e-06 0.0123286)
(-5.71039e-06 1.11518e-06 0.0123308)
(-6.54994e-06 8.8785e-07 0.0123323)
(-6.21052e-06 6.21236e-07 0.0123221)
(6.21051e-06 -6.21233e-07 0.0123221)
(6.54996e-06 -8.87842e-07 0.0123323)
(5.71041e-06 -1.11517e-06 0.0123308)
(3.86587e-06 -1.27865e-06 0.0123286)
(1.36461e-06 -1.36459e-06 0.0123273)
(-1.3646e-06 -1.3646e-06 0.0123273)
(-3.86585e-06 -1.27866e-06 0.0123286)
(-5.71038e-06 -1.11518e-06 0.0123308)
(-6.54993e-06 -8.87851e-07 0.0123323)
(-6.21052e-06 -6.21234e-07 0.0123221)
(5.82726e-06 -1.76946e-06 0.0123179)
(6.13693e-06 -2.52147e-06 0.0123321)
(5.35203e-06 -3.1621e-06 0.0123317)
(3.62314e-06 -3.62313e-06 0.0123298)
(1.27866e-06 -3.86585e-06 0.0123286)
(-1.27866e-06 -3.86585e-06 0.0123286)
(-3.62313e-06 -3.62313e-06 0.0123298)
(-5.35202e-06 -3.16212e-06 0.0123317)
(-6.13691e-06 -2.52151e-06 0.0123321)
(-5.82726e-06 -1.7695e-06 0.0123179)
(5.10438e-06 -2.62507e-06 0.0123047)
(5.35732e-06 -3.7313e-06 0.0123299)
(4.67298e-06 -4.67298e-06 0.0123326)
(3.16212e-06 -5.35202e-06 0.0123317)
(1.11518e-06 -5.71038e-06 0.0123308)
(-1.11518e-06 -5.71038e-06 0.0123308)
(-3.16212e-06 -5.35202e-06 0.0123317)
(-4.67299e-06 -4.67299e-06 0.0123326)
(-5.35732e-06 -3.73133e-06 0.0123299)
(-5.10435e-06 -2.62509e-06 0.0123047)
(4.15505e-06 -2.96734e-06 0.0122659)
(4.28145e-06 -4.28147e-06 0.012318)
(3.73131e-06 -5.35733e-06 0.0123299)
(2.5215e-06 -6.13691e-06 0.0123321)
(8.87854e-07 -6.54994e-06 0.0123323)
(-8.87861e-07 -6.54994e-06 0.0123323)
(-2.5215e-06 -6.1369e-06 0.0123321)
(-3.73133e-06 -5.3573e-06 0.0123299)
(-4.28144e-06 -4.28144e-06 0.012318)
(-4.155e-06 -2.96731e-06 0.0122659)
(2.97661e-06 -2.97659e-06 0.0121598)
(2.96733e-06 -4.15503e-06 0.0122659)
(2.62509e-06 -5.10437e-06 0.0123047)
(1.7695e-06 -5.82726e-06 0.0123179)
(6.21238e-07 -6.21052e-06 0.0123221)
(-6.21234e-07 -6.21051e-06 0.0123221)
(-1.76948e-06 -5.82725e-06 0.0123179)
(-2.62509e-06 -5.10435e-06 0.0123047)
(-2.96733e-06 -4.155e-06 0.0122659)
(-2.97658e-06 -2.97657e-06 0.0121598)
(9.22081e-07 9.22085e-07 0.0121579)
(9.40569e-07 1.33056e-06 0.0122647)
(8.48677e-07 1.66078e-06 0.0123041)
(5.76755e-07 1.92044e-06 0.0123179)
(2.03582e-07 2.05809e-06 0.0123224)
(-2.03586e-07 2.05808e-06 0.0123224)
(-5.76742e-07 1.92042e-06 0.0123179)
(-8.48653e-07 1.66075e-06 0.0123041)
(-9.40556e-07 1.33055e-06 0.0122647)
(-9.22072e-07 9.2209e-07 0.0121579)
(1.33056e-06 9.40557e-07 0.0122647)
(1.40472e-06 1.40471e-06 0.0123179)
(1.24722e-06 1.79447e-06 0.012331)
(8.51748e-07 2.08397e-06 0.0123341)
(3.01565e-07 2.23895e-06 0.0123348)
(-3.01578e-07 2.23894e-06 0.0123348)
(-8.51763e-07 2.08396e-06 0.0123341)
(-1.2472e-06 1.79445e-06 0.012331)
(-1.40468e-06 1.40469e-06 0.0123179)
(-1.33054e-06 9.40561e-07 0.0122647)
(1.66078e-06 8.4867e-07 0.0123041)
(1.79448e-06 1.24722e-06 0.012331)
(1.59739e-06 1.59739e-06 0.0123352)
(1.09425e-06 1.85648e-06 0.0123354)
(3.88269e-07 1.99503e-06 0.0123352)
(-3.88278e-07 1.99503e-06 0.0123352)
(-1.09426e-06 1.85649e-06 0.0123354)
(-1.59738e-06 1.5974e-06 0.0123352)
(-1.79445e-06 1.24721e-06 0.012331)
(-1.66075e-06 8.48667e-07 0.0123041)
(1.92045e-06 5.76758e-07 0.0123179)
(2.08398e-06 8.51752e-07 0.0123341)
(1.85648e-06 1.09425e-06 0.0123354)
(1.27347e-06 1.27347e-06 0.0123349)
(4.5236e-07 1.36918e-06 0.0123345)
(-4.5236e-07 1.36919e-06 0.0123345)
(-1.27348e-06 1.27349e-06 0.0123349)
(-1.85648e-06 1.09427e-06 0.0123354)
(-2.08395e-06 8.51767e-07 0.0123341)
(-1.92042e-06 5.76762e-07 0.0123179)
(2.05809e-06 2.03585e-07 0.0123224)
(2.23894e-06 3.01558e-07 0.0123348)
(1.99503e-06 3.8826e-07 0.0123352)
(1.36919e-06 4.52356e-07 0.0123345)
(4.86562e-07 4.86558e-07 0.0123341)
(-4.8655e-07 4.86563e-07 0.0123341)
(-1.36918e-06 4.52372e-07 0.0123345)
(-1.99502e-06 3.88286e-07 0.0123352)
(-2.23893e-06 3.01577e-07 0.0123348)
(-2.05808e-06 2.03586e-07 0.0123224)
(2.05808e-06 -2.0359e-07 0.0123224)
(2.23894e-06 -3.0158e-07 0.0123348)
(1.99503e-06 -3.88276e-07 0.0123352)
(1.36919e-06 -4.52358e-07 0.0123345)
(4.86568e-07 -4.86546e-07 0.0123341)
(-4.86545e-07 -4.86543e-07 0.0123341)
(-1.36918e-06 -4.5235e-07 0.0123345)
(-1.99503e-06 -3.88266e-07 0.0123352)
(-2.23894e-06 -3.01578e-07 0.0123348)
(-2.05808e-06 -2.03599e-07 0.0123224)
(1.92043e-06 -5.7675e-07 0.0123179)
(2.08397e-06 -8.51758e-07 0.0123341)
(1.85649e-06 -1.09426e-06 0.0123354)
(1.27349e-06 -1.27347e-06 0.0123349)
(4.52376e-07 -1.36917e-06 0.0123345)
(-4.52354e-07 -1.36917e-06 0.0123345)
(-1.27348e-06 -1.27347e-06 0.0123349)
(-1.85649e-06 -1.09426e-06 0.0123354)
(-2.08396e-06 -8.51762e-07 0.0123341)
(-1.92043e-06 -5.76756e-07 0.0123179)
(1.66075e-06 -8.48652e-07 0.0123041)
(1.79446e-06 -1.2472e-06 0.012331)
(1.5974e-06 -1.59738e-06 0.0123352)
(1.09428e-06 -1.85647e-06 0.0123354)
(3.88285e-07 -1.99502e-06 0.0123352)
(-3.88275e-07 -1.99503e-06 0.0123352)
(-1.09426e-06 -1.85649e-06 0.0123354)
(-1.59739e-06 -1.59739e-06 0.0123352)
(-1.79445e-06 -1.24721e-06 0.012331)
(-1.66076e-06 -8.48664e-07 0.0123041)
(1.33055e-06 -9.40538e-07 0.0122647)
(1.4047e-06 -1.40467e-06 0.0123179)
(1.24722e-06 -1.79443e-06 0.012331)
(8.51771e-07 -2.08394e-06 0.0123341)
(3.01569e-07 -2.23893e-06 0.0123348)
(-3.01583e-07 -2.23894e-06 0.0123348)
(-8.51762e-07 -2.08396e-06 0.0123341)
(-1.24721e-06 -1.79445e-06 0.012331)
(-1.4047e-06 -1.4047e-06 0.0123179)
(-1.33056e-06 -9.40569e-07 0.0122647)
(9.22079e-07 -9.22059e-07 0.0121579)
(9.40566e-07 -1.33052e-06 0.0122647)