/*--------------------------------*- C++ -*----------------------------------*\
| =========                 |                                                 |
| \\      /  F ield         | OpenFOAM: The Open Source CFD Toolbox           |
|  \\    /   O peration     | Version:  2412                                  |
|   \\  /    A nd           | Website:  www.openfoam.com                      |
|    \\/     M anipulation  |                                                 |
\*---------------------------------------------------------------------------*/
FoamFile
{
    version     2.0;
    format      ascii;
    arch        "LSB;label=32;scalar=64";
    class       surfaceScalarField;
    location    "4.1";
    object      phi;
}
// * * * * * * * * * * * * * * * * * * * * * * * * * * * * * * * * * * * * * //

dimensions      [0 3 -1 0 0 0 0];

oriented        oriented;

internalField   nonuniform List<scalar> 
43700
(
1.80906e-07
1.80906e-07
5.49052e-07
-2.20423e-07
-2.20423e-07
1.33574e-07
1.60241e-07
5.92661e-07
-1.96185e-07
8.83536e-08
1.47067e-07
6.23652e-07
-1.86068e-07
4.38054e-08
1.3831e-07
6.43559e-07
-1.77609e-07
-4.03102e-17
1.34108e-07
6.53348e-07
-1.73722e-07
-4.38054e-08
1.34108e-07
6.53348e-07
-1.73722e-07
-8.83536e-08
1.3831e-07
6.43559e-07
-1.77609e-07
-1.33574e-07
1.47067e-07
6.23652e-07
-1.86068e-07
-1.80906e-07
1.60241e-07
5.92661e-07
-1.96185e-07
1.80906e-07
5.49052e-07
-2.20423e-07
-2.20423e-07
1.60241e-07
1.33574e-07
5.92661e-07
-1.96185e-07
1.18928e-07
1.18928e-07
6.28468e-07
7.82212e-08
1.07909e-07
6.53556e-07
3.86886e-08
1.0058e-07
6.6976e-07
1.05011e-15
9.70036e-08
6.77765e-07
-3.86886e-08
9.70036e-08
6.77765e-07
-7.82212e-08
1.0058e-07
6.6976e-07
-1.18928e-07
1.07909e-07
6.53556e-07
-1.60241e-07
1.18928e-07
6.28468e-07
1.33574e-07
5.92661e-07
-1.96185e-07
1.47067e-07
8.83536e-08
6.23652e-07
-1.86068e-07
1.07909e-07
7.82212e-08
6.53556e-07
7.04929e-08
7.04929e-08
6.74705e-07
3.47558e-08
6.53474e-08
6.88532e-07
4.27463e-16
6.28238e-08
6.95414e-07
-3.47558e-08
6.28238e-08
6.95414e-07
-7.04929e-08
6.53474e-08
6.88532e-07
-1.07909e-07
7.04929e-08
6.74705e-07
-1.47067e-07
7.82212e-08
6.53556e-07
8.83536e-08
6.23652e-07
-1.86068e-07
1.3831e-07
4.38054e-08
6.43559e-07
-1.77609e-07
1.0058e-07
3.86886e-08
6.6976e-07
6.53474e-08
3.47558e-08
6.88532e-07
3.21263e-08
3.21263e-08
7.00945e-07
-3.97367e-16
3.08328e-08
7.07159e-07
-3.21263e-08
3.08328e-08
7.07159e-07
-6.53474e-08
3.21263e-08
7.00945e-07
-1.0058e-07
3.47558e-08
6.88532e-07
-1.3831e-07
3.86886e-08
6.6976e-07
4.38054e-08
6.43559e-07
-1.77609e-07
1.34108e-07
3.10722e-16
6.53348e-07
-1.73722e-07
9.70036e-08
-2.52709e-16
6.77765e-07
6.28238e-08
-9.19672e-17
6.95414e-07
3.08328e-08
1.36241e-16
7.07159e-07
-3.53981e-17
-1.0121e-16
7.13058e-07
-3.08328e-08
4.98899e-16
7.13058e-07
-6.28238e-08
1.01445e-15
7.07159e-07
-9.70036e-08
4.19731e-16
6.95414e-07
-1.34108e-07
-4.95355e-16
6.77765e-07
-2.42539e-18
6.53348e-07
-1.73722e-07
1.34108e-07
-4.38054e-08
6.53348e-07
-1.73722e-07
9.70036e-08
-3.86886e-08
6.77765e-07
6.28238e-08
-3.47558e-08
6.95414e-07
3.08328e-08
-3.21263e-08
7.07159e-07
6.55972e-16
-3.08328e-08
7.13058e-07
-3.08328e-08
-3.08328e-08
7.13058e-07
-6.28238e-08
-3.21263e-08
7.07159e-07
-9.70036e-08
-3.47558e-08
6.95414e-07
-1.34108e-07
-3.86886e-08
6.77765e-07
-4.38054e-08
6.53348e-07
-1.73722e-07
1.3831e-07
-8.83536e-08
6.43559e-07
-1.77609e-07
1.0058e-07
-7.82212e-08
6.6976e-07
6.53474e-08
-7.04929e-08
6.88532e-07
3.21263e-08
-6.53474e-08
7.00945e-07
3.70034e-16
-6.28238e-08
7.07159e-07
-3.21263e-08
-6.28238e-08
7.07159e-07
-6.53474e-08
-6.53474e-08
7.00945e-07
-1.0058e-07
-7.04929e-08
6.88532e-07
-1.3831e-07
-7.82212e-08
6.6976e-07
-8.83536e-08
6.43559e-07
-1.77609e-07
1.47067e-07
-1.33574e-07
6.23652e-07
-1.86068e-07
1.07909e-07
-1.18928e-07
6.53556e-07
7.04929e-08
-1.07909e-07
6.74705e-07
3.47558e-08
-1.0058e-07
6.88532e-07
-1.57658e-16
-9.70036e-08
6.95414e-07
-3.47558e-08
-9.70036e-08
6.95414e-07
-7.04929e-08
-1.0058e-07
6.88532e-07
-1.07909e-07
-1.07909e-07
6.74705e-07
-1.47067e-07
-1.18928e-07
6.53556e-07
-1.33574e-07
6.23652e-07
-1.86068e-07
1.60241e-07
-1.80906e-07
5.92661e-07
-1.96185e-07
1.18928e-07
-1.60241e-07
6.28468e-07
7.82212e-08
-1.47067e-07
6.53556e-07
3.86886e-08
-1.3831e-07
6.6976e-07
-5.87381e-16
-1.34108e-07
6.77765e-07
-3.86886e-08
-1.34108e-07
6.77765e-07
-7.82212e-08
-1.3831e-07
6.6976e-07
-1.18928e-07
-1.47067e-07
6.53556e-07
-1.60241e-07
-1.60241e-07
6.28468e-07
-1.80906e-07
5.92661e-07
-1.96185e-07
1.80906e-07
5.49052e-07
-2.20423e-07
-2.20423e-07
1.33574e-07
5.92661e-07
-1.96185e-07
8.83536e-08
6.23652e-07
-1.86068e-07
4.38054e-08
6.43559e-07
-1.77609e-07
6.01687e-16
6.53348e-07
-1.73722e-07
-4.38054e-08
6.53348e-07
-1.73722e-07
-8.83536e-08
6.43559e-07
-1.77609e-07
-1.33574e-07
6.23652e-07
-1.86068e-07
-1.80906e-07
5.92661e-07
-1.96185e-07
5.49052e-07
-2.20423e-07
-2.20423e-07
9.65826e-08
9.65826e-08
5.79661e-07
-1.11887e-07
-1.11887e-07
7.56862e-08
9.45465e-08
6.29808e-07
-1.10797e-07
5.18298e-08
9.26301e-08
6.64622e-07
-1.09744e-07
2.62485e-08
9.09636e-08
6.86589e-07
-1.08412e-07
-4.9375e-16
9.02003e-08
6.97289e-07
-1.07893e-07
-2.62485e-08
9.02003e-08
6.97289e-07
-1.07893e-07
-5.18298e-08
9.09636e-08
6.86589e-07
-1.08412e-07
-7.56862e-08
9.26301e-08
6.64622e-07
-1.09744e-07
-9.65826e-08
9.45465e-08
6.29808e-07
-1.10797e-07
9.65826e-08
5.79661e-07
-1.11887e-07
-1.11887e-07
9.45465e-08
7.56862e-08
6.29808e-07
-1.10797e-07
7.36246e-08
7.36246e-08
6.70312e-07
5.02591e-08
7.17599e-08
6.97791e-07
2.54366e-08
7.03137e-08
7.15232e-07
8.60713e-16
6.9613e-08
7.23789e-07
-2.54366e-08
6.9613e-08
7.23789e-07
-5.02591e-08
7.03137e-08
7.15232e-07
-7.36246e-08
7.17599e-08
6.97791e-07
-9.45465e-08
7.36246e-08
6.70312e-07
7.56862e-08
6.29808e-07
-1.10797e-07
9.26301e-08
5.18297e-08
6.64622e-07
-1.09744e-07
7.17599e-08
5.02591e-08
6.97791e-07
4.88725e-08
4.88725e-08
7.2048e-07
2.47314e-08
4.78506e-08
7.35136e-07
7.85905e-16
4.73461e-08
7.42412e-07
-2.47314e-08
4.73461e-08
7.42412e-07
-4.88725e-08
4.78506e-08
7.35136e-07
-7.17599e-08
4.88725e-08
7.2048e-07
-9.26301e-08
5.02591e-08
6.97791e-07
5.18298e-08
6.64622e-07
-1.09744e-07
9.09636e-08
2.62485e-08
6.86589e-07
-1.08412e-07
7.03137e-08
2.54366e-08
7.15232e-07
4.78506e-08
2.47314e-08
7.35136e-07
2.42177e-08
2.42176e-08
7.48211e-07
6.56604e-16
2.39613e-08
7.54762e-07
-2.42176e-08
2.39613e-08
7.54762e-07
-4.78506e-08
2.42176e-08
7.48211e-07
-7.03137e-08
2.47314e-08
7.35136e-07
-9.09636e-08
2.54366e-08
7.15232e-07
2.62485e-08
6.86589e-07
-1.08412e-07
9.02003e-08
-6.3674e-16
6.97289e-07
-1.07893e-07
6.9613e-08
7.94615e-16
7.23789e-07
4.73461e-08
9.5001e-16
7.42412e-07
2.39613e-08
6.00079e-16
7.54762e-07
8.71695e-16
8.37653e-16
7.60981e-07
-2.39613e-08
1.37694e-15
7.60981e-07
-4.73461e-08
1.47e-15
7.54762e-07
-6.9613e-08
7.61829e-16
7.42412e-07
-9.02003e-08
-9.31648e-16
7.23789e-07
-1.54378e-15
6.97289e-07
-1.07893e-07
9.02003e-08
-2.62485e-08
6.97289e-07
-1.07893e-07
6.9613e-08
-2.54366e-08
7.23789e-07
4.73461e-08
-2.47314e-08
7.42412e-07
2.39613e-08
-2.42176e-08
7.54762e-07
1.44698e-15
-2.39613e-08
7.60981e-07
-2.39613e-08
-2.39613e-08
7.60981e-07
-4.73461e-08
-2.42176e-08
7.54762e-07
-6.9613e-08
-2.47314e-08
7.42412e-07
-9.02003e-08
-2.54366e-08
7.23789e-07
-2.62485e-08
6.97289e-07
-1.07893e-07
9.09636e-08
-5.18298e-08
6.86589e-07
-1.08412e-07
7.03137e-08
-5.02591e-08
7.15232e-07
4.78506e-08
-4.88725e-08
7.35136e-07
2.42177e-08
-4.78506e-08
7.48211e-07
1.48142e-15
-4.73461e-08
7.54762e-07
-2.42176e-08
-4.73461e-08
7.54762e-07
-4.78506e-08
-4.78506e-08
7.48211e-07
-7.03137e-08
-4.88725e-08
7.35136e-07
-9.09636e-08
-5.02591e-08
7.15232e-07
-5.18298e-08
6.86589e-07
-1.08412e-07
9.26301e-08
-7.56862e-08
6.64622e-07
-1.09744e-07
7.17599e-08
-7.36246e-08
6.97791e-07
4.88725e-08
-7.17599e-08
7.2048e-07
2.47314e-08
-7.03137e-08
7.35136e-07
5.37381e-16
-6.9613e-08
7.42412e-07
-2.47314e-08
-6.9613e-08
7.42412e-07
-4.88725e-08
-7.03137e-08
7.35136e-07
-7.17599e-08
-7.17599e-08
7.2048e-07
-9.26301e-08
-7.36246e-08
6.97791e-07
-7.56862e-08
6.64622e-07
-1.09744e-07
9.45465e-08
-9.65826e-08
6.29808e-07
-1.10797e-07
7.36246e-08
-9.45465e-08
6.70312e-07
5.02591e-08
-9.26301e-08
6.97791e-07
2.54366e-08
-9.09636e-08
7.15232e-07
-1.72328e-15
-9.02003e-08
7.23789e-07
-2.54366e-08
-9.02003e-08
7.23789e-07
-5.02591e-08
-9.09636e-08
7.15232e-07
-7.36246e-08
-9.26301e-08
6.97791e-07
-9.45465e-08
-9.45465e-08
6.70312e-07
-9.65826e-08
6.29808e-07
-1.10797e-07
9.65826e-08
5.79661e-07
-1.11887e-07
-1.11887e-07
7.56862e-08
6.29808e-07
-1.10797e-07
5.18298e-08
6.64622e-07
-1.09744e-07
2.62485e-08
6.86589e-07
-1.08412e-07
-1.948e-15
6.97289e-07
-1.07893e-07
-2.62485e-08
6.97289e-07
-1.07893e-07
-5.18298e-08
6.86589e-07
-1.08412e-07
-7.56862e-08
6.64622e-07
-1.09744e-07
-9.65826e-08
6.29808e-07
-1.10797e-07
5.79661e-07
-1.11887e-07
-1.11887e-07
5.8769e-08
5.8769e-08
5.86525e-07
-6.22009e-08
-6.22009e-08
4.92443e-08
6.18656e-08
6.43166e-07
-6.56991e-08
3.52137e-08
6.34865e-08
6.82755e-07
-6.75887e-08
1.82971e-08
6.41605e-08
7.07879e-07
-6.85333e-08
-7.44131e-16
6.4462e-08
7.20144e-07
-6.90198e-08
-1.82971e-08
6.4462e-08
7.20144e-07
-6.90198e-08
-3.52137e-08
6.41605e-08
7.07879e-07
-6.85333e-08
-4.92443e-08
6.34865e-08
6.82755e-07
-6.75887e-08
-5.8769e-08
6.18656e-08
6.43166e-07
-6.56991e-08
5.8769e-08
5.86525e-07
-6.22009e-08
-6.22009e-08
6.18656e-08
4.92443e-08
6.43166e-07
-6.56991e-08
5.17079e-08
5.17079e-08
6.90627e-07
3.69753e-08
5.29466e-08
7.23064e-07
1.92188e-08
5.34124e-08
7.43737e-07
2.10853e-15
5.35821e-08
7.53888e-07
-1.92188e-08
5.35821e-08
7.53888e-07
-3.69753e-08
5.34124e-08
7.43737e-07
-5.17079e-08
5.29466e-08
7.23064e-07
-6.18656e-08
5.17079e-08
6.90627e-07
4.92443e-08
6.43166e-07
-6.56991e-08
6.34865e-08
3.52137e-08
6.82755e-07
-6.75887e-08
5.29466e-08
3.69753e-08
7.23064e-07
3.78125e-08
3.78125e-08
7.50748e-07
1.96467e-08
3.80994e-08
7.68615e-07
1.81258e-15
3.81819e-08
7.77459e-07
-1.96467e-08
3.81819e-08
7.77459e-07
-3.78125e-08
3.80994e-08
7.68615e-07
-5.29466e-08
3.78125e-08
7.50748e-07
-6.34865e-08
3.69753e-08
7.23064e-07
3.52137e-08
6.82755e-07
-6.75887e-08
6.41605e-08
1.82971e-08
7.07879e-07
-6.85333e-08
5.34124e-08
1.92188e-08
7.43737e-07
3.80994e-08
1.96467e-08
7.68615e-07
1.97853e-08
1.97853e-08
7.84839e-07
1.29249e-15
1.98181e-08
7.92911e-07
-1.97853e-08
1.98181e-08
7.92911e-07
-3.80994e-08
1.97853e-08
7.84839e-07
-5.34124e-08
1.96467e-08
7.68615e-07
-6.41605e-08
1.92188e-08
7.43737e-07
1.82971e-08
7.07879e-07
-6.85333e-08
6.4462e-08
3.79097e-16
7.20144e-07
-6.90198e-08
5.35821e-08
2.62157e-15
7.53888e-07
3.81819e-08
2.31509e-15
7.77459e-07
1.98181e-08
1.9408e-15
7.92911e-07
9.79511e-16
1.45101e-15
8.00617e-07
-1.98181e-08
1.59814e-15
8.00617e-07
-3.81819e-08
9.92356e-16
7.92911e-07
-5.35821e-08
-1.78579e-16
7.77459e-07
-6.4462e-08
-2.64693e-15
7.53888e-07
-3.67265e-15
7.20144e-07
-6.90198e-08
6.4462e-08
-1.82971e-08
7.20144e-07
-6.90198e-08
5.35821e-08
-1.92188e-08
7.53888e-07
3.81819e-08
-1.96467e-08
7.77459e-07
1.98181e-08
-1.97853e-08
7.92911e-07
1.02448e-15
-1.98181e-08
8.00617e-07
-1.98181e-08
-1.98181e-08
8.00617e-07
-3.81819e-08
-1.97853e-08
7.92911e-07
-5.35821e-08
-1.96467e-08
7.77459e-07
-6.4462e-08
-1.92188e-08
7.53888e-07
-1.82972e-08
7.20144e-07
-6.90198e-08
6.41605e-08
-3.52137e-08
7.07879e-07
-6.85333e-08
5.34124e-08
-3.69753e-08
7.43737e-07
3.80994e-08
-3.78125e-08
7.68615e-07
1.97853e-08
-3.80994e-08
7.84839e-07
4.54203e-16
-3.81819e-08
7.92911e-07
-1.97853e-08
-3.81819e-08
7.92911e-07
-3.80994e-08
-3.80994e-08
7.84839e-07
-5.34124e-08
-3.78125e-08
7.68615e-07
-6.41605e-08
-3.69753e-08
7.43737e-07
-3.52138e-08
7.07879e-07
-6.85333e-08
6.34865e-08
-4.92443e-08
6.82755e-07
-6.75887e-08
5.29466e-08
-5.17079e-08
7.23064e-07
3.78125e-08
-5.29466e-08
7.50748e-07
1.96467e-08
-5.34124e-08
7.68615e-07
-2.62086e-16
-5.35821e-08
7.77459e-07
-1.96467e-08
-5.35821e-08
7.77459e-07
-3.78125e-08
-5.34124e-08
7.68615e-07
-5.29466e-08
-5.29466e-08
7.50748e-07
-6.34865e-08
-5.17079e-08
7.23064e-07
-4.92443e-08
6.82755e-07
-6.75887e-08
6.18656e-08
-5.8769e-08
6.43166e-07
-6.56991e-08
5.17079e-08
-6.18656e-08
6.90627e-07
3.69753e-08
-6.34865e-08
7.23064e-07
1.92188e-08
-6.41605e-08
7.43737e-07
-2.35904e-15
-6.4462e-08
7.53888e-07
-1.92188e-08
-6.4462e-08
7.53888e-07
-3.69753e-08
-6.41605e-08
7.43737e-07
-5.17079e-08
-6.34865e-08
7.23064e-07
-6.18656e-08
-6.18656e-08
6.90627e-07
-5.8769e-08
6.43166e-07
-6.56991e-08
5.8769e-08
5.86525e-07
-6.22009e-08
-6.22009e-08
4.92443e-08
6.43166e-07
-6.56991e-08
3.52137e-08
6.82755e-07
-6.75887e-08
1.82971e-08
7.07879e-07
-6.85333e-08
-2.1577e-15
7.20144e-07
-6.90198e-08
-1.82972e-08
7.20144e-07
-6.90198e-08
-3.52138e-08
7.07879e-07
-6.85333e-08
-4.92443e-08
6.82755e-07
-6.75887e-08
-5.8769e-08
6.43166e-07
-6.56991e-08
5.86525e-07
-6.22009e-08
-6.22009e-08
2.10331e-08
2.10331e-08
5.85371e-07
-2.04562e-08
-2.04562e-08
1.90239e-08
2.46332e-08
6.44446e-07
-2.39041e-08
1.42713e-08
2.7026e-08
6.86394e-07
-2.59117e-08
7.63035e-09
2.84574e-08
7.13323e-07
-2.72605e-08
-4.77954e-16
2.9152e-08
7.26549e-07
-2.79272e-08
-7.63036e-09
2.9152e-08
7.26549e-07
-2.79272e-08
-1.42713e-08
2.84574e-08
7.13323e-07
-2.72605e-08
-1.90239e-08
2.7026e-08
6.86394e-07
-2.59117e-08
-2.10331e-08
2.46332e-08
6.44446e-07
-2.39041e-08
2.10331e-08
5.85371e-07
-2.04562e-08
-2.04562e-08
2.46332e-08
1.90239e-08
6.44446e-07
-2.39041e-08
2.21295e-08
2.21295e-08
6.95634e-07
1.66027e-08
2.42591e-08
7.31357e-07
8.86988e-09
2.55099e-08
7.54417e-07
1.00934e-15
2.60993e-08
7.6581e-07
-8.86988e-09
2.60993e-08
7.6581e-07
-1.66027e-08
2.55099e-08
7.54417e-07
-2.21295e-08
2.42591e-08
7.31357e-07
-2.46332e-08
2.21295e-08
6.95634e-07
1.90239e-08
6.44446e-07
-2.39041e-08
2.7026e-08
1.42713e-08
6.86394e-07
-2.59117e-08
2.42591e-08
1.66027e-08
7.31357e-07
1.81693e-08
1.81693e-08
7.62928e-07
9.69647e-09
1.90755e-08
7.83522e-07
1.10881e-15
1.94931e-08
7.93761e-07
-9.69647e-09
1.94931e-08
7.93761e-07
-1.81693e-08
1.90755e-08
7.83522e-07
-2.42591e-08
1.81693e-08
7.62928e-07
-2.7026e-08
1.66027e-08
7.31357e-07
1.42713e-08
6.86394e-07
-2.59117e-08
2.84574e-08
7.63036e-09
7.13323e-07
-2.72605e-08
2.55099e-08
8.86988e-09
7.54417e-07
1.90755e-08
9.69647e-09
7.83522e-07
1.01705e-08
1.01705e-08
8.02649e-07
8.6909e-16
1.03864e-08
8.12188e-07
-1.01705e-08
1.03864e-08
8.12188e-07
-1.90755e-08
1.01705e-08
8.02649e-07
-2.55099e-08
9.69647e-09
7.83522e-07
-2.84574e-08
8.86988e-09
7.54417e-07
7.63035e-09
7.13323e-07
-2.72605e-08
2.9152e-08
1.22952e-15
7.26549e-07
-2.79272e-08
2.60993e-08
1.04196e-15
7.6581e-07
1.94931e-08
1.0066e-15
7.93761e-07
1.03864e-08
1.13384e-15
8.12188e-07
9.97099e-16
1.05456e-15
8.2139e-07
-1.03864e-08
1.49722e-15
8.2139e-07
-1.94931e-08
1.19103e-15
8.12188e-07
-2.60993e-08
4.21419e-16
7.93761e-07
-2.9152e-08
-2.17783e-15
7.6581e-07
-2.94474e-15
7.26549e-07
-2.79272e-08
2.9152e-08
-7.63035e-09
7.26549e-07
-2.79272e-08
2.60993e-08
-8.86988e-09
7.6581e-07
1.94931e-08
-9.69647e-09
7.93761e-07
1.03864e-08
-1.01705e-08
8.12188e-07
1.33862e-15
-1.03864e-08
8.2139e-07
-1.03864e-08
-1.03864e-08
8.2139e-07
-1.94931e-08
-1.01705e-08
8.12188e-07
-2.60993e-08
-9.69647e-09
7.93761e-07
-2.9152e-08
-8.86989e-09
7.6581e-07
-7.63036e-09
7.26549e-07
-2.79272e-08
2.84574e-08
-1.42713e-08
7.13323e-07
-2.72605e-08
2.55099e-08
-1.66027e-08
7.54417e-07
1.90755e-08
-1.81693e-08
7.83522e-07
1.01705e-08
-1.90755e-08
8.02649e-07
9.80767e-16
-1.94931e-08
8.12188e-07
-1.01705e-08
-1.94931e-08
8.12188e-07
-1.90755e-08
-1.90755e-08
8.02649e-07
-2.55099e-08
-1.81693e-08
7.83522e-07
-2.84574e-08
-1.66027e-08
7.54417e-07
-1.42713e-08
7.13323e-07
-2.72605e-08
2.7026e-08
-1.90239e-08
6.86394e-07
-2.59117e-08
2.42591e-08
-2.21295e-08
7.31357e-07
1.81693e-08
-2.42591e-08
7.62928e-07
9.69647e-09
-2.55099e-08
7.83522e-07
6.36336e-16
-2.60993e-08
7.93761e-07
-9.69647e-09
-2.60993e-08
7.93761e-07
-1.81693e-08
-2.55099e-08
7.83522e-07
-2.42591e-08
-2.42591e-08
7.62928e-07
-2.7026e-08
-2.21295e-08
7.31357e-07
-1.90239e-08
6.86394e-07
-2.59117e-08
2.46332e-08
-2.10331e-08
6.44446e-07
-2.39041e-08
2.21295e-08
-2.46332e-08
6.95634e-07
1.66027e-08
-2.7026e-08
7.31357e-07
8.86988e-09
-2.84574e-08
7.54417e-07
-1.24657e-15
-2.9152e-08
7.6581e-07
-8.86988e-09
-2.9152e-08
7.6581e-07
-1.66027e-08
-2.84574e-08
7.54417e-07
-2.21295e-08
-2.7026e-08
7.31357e-07
-2.46332e-08
-2.46332e-08
6.95634e-07
-2.10331e-08
6.44446e-07
-2.39041e-08
2.10331e-08
5.85371e-07
-2.04562e-08
-2.04562e-08
1.90239e-08
6.44446e-07
-2.39041e-08
1.42713e-08
6.86394e-07
-2.59117e-08
7.63036e-09
7.13323e-07
-2.72605e-08
-2.06003e-15
7.26549e-07
-2.79272e-08
-7.63036e-09
7.26549e-07
-2.79272e-08
-1.42713e-08
7.13323e-07
-2.72605e-08
-1.90239e-08
6.86394e-07
-2.59117e-08
-2.10331e-08
6.44446e-07
-2.39041e-08
5.85371e-07
-2.04562e-08
-2.04562e-08
7.55611e-09
7.55611e-09
5.84103e-07
-6.92198e-09
-6.92198e-09
7.0861e-09
9.22793e-09
6.44057e-07
-8.36881e-09
5.44173e-09
1.0403e-08
6.86929e-07
-9.29446e-09
2.95023e-09
1.11564e-08
7.14603e-07
-9.9449e-09
2.97516e-16
1.15283e-08
7.28235e-07
-1.02637e-08
-2.95023e-09
1.15283e-08
7.28235e-07
-1.02637e-08
-5.44173e-09
1.11564e-08
7.14603e-07
-9.9449e-09
-7.0861e-09
1.0403e-08
6.86929e-07
-9.29446e-09
-7.55611e-09
9.22793e-09
6.44057e-07
-8.3688e-09
7.55611e-09
5.84103e-07
-6.92198e-09
-6.92198e-09
9.22793e-09
7.0861e-09
6.44057e-07
-8.36881e-09
8.6444e-09
8.6444e-09
6.96802e-07
6.6527e-09
9.76724e-09
7.33985e-07
3.60556e-09
1.047e-08
7.5815e-07
1.8656e-15
1.08126e-08
7.70131e-07
-3.60555e-09
1.08126e-08
7.70131e-07
-6.65269e-09
1.047e-08
7.5815e-07
-8.64439e-09
9.76723e-09
7.33985e-07
-9.22793e-09
8.6444e-09
6.96802e-07
7.0861e-09
6.44057e-07
-8.3688e-09
1.0403e-08
5.44173e-09
6.86929e-07
-9.29446e-09
9.76724e-09
6.6527e-09
7.33985e-07
7.52084e-09
7.52084e-09
7.67421e-07
4.07573e-09
8.05842e-09
7.89379e-07
1.69874e-15
8.31756e-09
8.00332e-07
-4.07573e-09
8.31756e-09
8.00332e-07
-7.52084e-09
8.05842e-09
7.89379e-07
-9.76724e-09
7.52084e-09
7.67421e-07
-1.0403e-08
6.65269e-09
7.33985e-07
5.44173e-09
6.86929e-07
-9.29446e-09
1.11564e-08
2.95023e-09
7.14603e-07
-9.9449e-09
1.047e-08
3.60556e-09
7.5815e-07
8.05842e-09
4.07573e-09
7.89379e-07
4.36661e-09
4.36661e-09
8.10033e-07
1.23195e-15
4.50594e-09
8.20366e-07
-4.36661e-09
4.50594e-09
8.20366e-07
-8.05842e-09
4.36661e-09
8.10033e-07
-1.047e-08
4.07573e-09
7.89379e-07
-1.11564e-08
3.60555e-09
7.5815e-07
2.95023e-09
7.14603e-07
-9.9449e-09
1.15283e-08
2.6182e-16
7.28235e-07
-1.02637e-08
1.08126e-08
1.93353e-15
7.70131e-07
8.31756e-09
2.11787e-15
8.00332e-07
4.50594e-09
1.68484e-15
8.20366e-07
8.09967e-16
1.25661e-15
8.30402e-07
-4.50594e-09
1.05064e-15
8.30402e-07
-8.31756e-09
5.14376e-16
8.20366e-07
-1.08126e-08
-2.32168e-16
8.00332e-07
-1.15283e-08
-9.42811e-16
7.70131e-07
-9.1573e-17
7.28235e-07
-1.02637e-08
1.15283e-08
-2.95023e-09
7.28235e-07
-1.02637e-08
1.08126e-08
-3.60555e-09
7.70131e-07
8.31756e-09
-4.07573e-09
8.00332e-07
4.50594e-09
-4.36661e-09
8.20366e-07
5.35091e-16
-4.50594e-09
8.30402e-07
-4.50594e-09
-4.50594e-09
8.30402e-07
-8.31756e-09
-4.36661e-09
8.20366e-07
-1.08126e-08
-4.07573e-09
8.00332e-07
-1.15283e-08
-3.60555e-09
7.70131e-07
-2.95023e-09
7.28235e-07
-1.02637e-08
1.11564e-08
-5.44173e-09
7.14603e-07
-9.9449e-09
1.047e-08
-6.65269e-09
7.5815e-07
8.05842e-09
-7.52084e-09
7.89379e-07
4.36661e-09
-8.05842e-09
8.10033e-07
9.9425e-17
-8.31756e-09
8.20366e-07
-4.36661e-09
-8.31756e-09
8.20366e-07
-8.05842e-09
-8.05842e-09
8.10033e-07
-1.047e-08
-7.52084e-09
7.89379e-07
-1.11564e-08
-6.65269e-09
7.5815e-07
-5.44173e-09
7.14603e-07
-9.9449e-09
1.0403e-08
-7.0861e-09
6.86929e-07
-9.29446e-09
9.76724e-09
-8.6444e-09
7.33985e-07
7.52084e-09
-9.76724e-09
7.67421e-07
4.07573e-09
-1.047e-08
7.89379e-07
-3.00456e-16
-1.08126e-08
8.00332e-07
-4.07573e-09
-1.08126e-08
8.00332e-07
-7.52084e-09
-1.047e-08
7.89379e-07
-9.76723e-09
-9.76724e-09
7.67421e-07
-1.0403e-08
-8.6444e-09
7.33985e-07
-7.0861e-09
6.86929e-07
-9.29446e-09
9.22793e-09
-7.55611e-09
6.44057e-07
-8.3688e-09
8.64439e-09
-9.22793e-09
6.96802e-07
6.65269e-09
-1.0403e-08
7.33985e-07
3.60555e-09
-1.11564e-08
7.5815e-07
-1.48999e-15
-1.15283e-08
7.70131e-07
-3.60555e-09
-1.15283e-08
7.70131e-07
-6.65269e-09
-1.11564e-08
7.5815e-07
-8.6444e-09
-1.0403e-08
7.33985e-07
-9.22793e-09
-9.22793e-09
6.96802e-07
-7.55611e-09
6.44057e-07
-8.36881e-09
7.55611e-09
5.84103e-07
-6.92198e-09
-6.92198e-09
7.0861e-09
6.44057e-07
-8.3688e-09
5.44173e-09
6.86929e-07
-9.29446e-09
2.95023e-09
7.14603e-07
-9.9449e-09
-8.149e-16
7.28235e-07
-1.02637e-08
-2.95024e-09
7.28235e-07
-1.02637e-08
-5.44173e-09
7.14603e-07
-9.9449e-09
-7.08611e-09
6.86929e-07
-9.29446e-09
-7.55611e-09
6.44057e-07
-8.36881e-09
5.84103e-07
-6.92198e-09
-6.92198e-09
2.46788e-09
2.46788e-09
5.83313e-07
-2.07325e-09
-2.07325e-09
2.44698e-09
3.22195e-09
6.43543e-07
-2.68761e-09
1.94419e-09
3.77005e-09
6.86762e-07
-3.10002e-09
1.07503e-09
4.13459e-09
7.14737e-07
-3.39984e-09
-2.48963e-17
4.31535e-09
7.28539e-07
-3.54488e-09
-1.07503e-09
4.31534e-09
7.28539e-07
-3.54488e-09
-1.94419e-09
4.13459e-09
7.14737e-07
-3.39984e-09
-2.44699e-09
3.77006e-09
6.86762e-07
-3.10002e-09
-2.46788e-09
3.22195e-09
6.43543e-07
-2.68761e-09
2.46788e-09
5.83313e-07
-2.07325e-09
-2.07325e-09
3.22195e-09
2.44698e-09
6.43543e-07
-2.68761e-09
3.17624e-09
3.17625e-09
6.96893e-07
2.51971e-09
3.71744e-09
7.34694e-07
1.38858e-09
4.06702e-09
7.59349e-07
-1.57278e-16
4.2393e-09
7.71596e-07
-1.38858e-09
4.2393e-09
7.71596e-07
-2.51971e-09
4.06702e-09
7.59349e-07
-3.17625e-09
3.71744e-09
7.34694e-07
-3.22195e-09
3.17625e-09
6.96893e-07
2.44699e-09
6.43543e-07
-2.68761e-09
3.77005e-09
1.94419e-09
6.86762e-07
-3.10002e-09
3.71743e-09
2.51971e-09
7.34694e-07
2.94649e-09
2.94649e-09
7.68962e-07
1.6217e-09
3.21846e-09
7.91552e-07
4.28142e-17
3.35119e-09
8.02842e-07
-1.6217e-09
3.35119e-09
8.02842e-07
-2.94649e-09
3.21846e-09
7.91552e-07
-3.71744e-09
2.94649e-09
7.68962e-07
-3.77006e-09
2.51971e-09
7.34694e-07
1.94419e-09
6.86762e-07
-3.10002e-09
4.13459e-09
1.07503e-09
7.14737e-07
-3.39984e-09
4.06702e-09
1.38858e-09
7.59349e-07
3.21846e-09
1.6217e-09
7.91552e-07
1.76994e-09
1.76994e-09
8.1293e-07
6.27508e-16
1.84197e-09
8.23646e-07
-1.76994e-09
1.84197e-09
8.23646e-07
-3.21846e-09
1.76995e-09
8.1293e-07
-4.06702e-09
1.6217e-09
7.91552e-07
-4.13459e-09
1.38858e-09
7.59349e-07
1.07503e-09
7.14737e-07
-3.39984e-09
4.31534e-09
4.7904e-16
7.28539e-07
-3.54488e-09
4.2393e-09
2.39947e-16
7.71596e-07
3.35119e-09
-1.41273e-17
8.02842e-07
1.84197e-09
3.44143e-16
8.23646e-07
9.57877e-16
8.00042e-16
8.34086e-07
-1.84197e-09
1.06326e-15
8.34086e-07
-3.35119e-09
1.19442e-15
8.23646e-07
-4.2393e-09
7.20422e-16
8.02842e-07
-4.31534e-09
-4.28439e-16
7.71596e-07
-3.78291e-16
7.28539e-07
-3.54488e-09
4.31534e-09
-1.07503e-09
7.28539e-07
-3.54488e-09
4.2393e-09
-1.38858e-09
7.71596e-07
3.35119e-09
-1.6217e-09
8.02842e-07
1.84197e-09
-1.76994e-09
8.23646e-07
1.35252e-15
-1.84197e-09
8.34086e-07
-1.84196e-09
-1.84197e-09
8.34086e-07
-3.35119e-09
-1.76994e-09
8.23646e-07
-4.2393e-09
-1.6217e-09
8.02842e-07
-4.31534e-09
-1.38858e-09
7.71596e-07
-1.07503e-09
7.28539e-07
-3.54488e-09
4.13459e-09
-1.94419e-09
7.14737e-07
-3.39984e-09
4.06702e-09
-2.51971e-09
7.59349e-07
3.21846e-09
-2.94649e-09
7.91552e-07
1.76994e-09
-3.21846e-09
8.1293e-07
1.17882e-15
-3.35119e-09
8.23646e-07
-1.76994e-09
-3.35119e-09
8.23646e-07
-3.21846e-09
-3.21846e-09
8.1293e-07
-4.06702e-09
-2.94649e-09
7.91552e-07
-4.13459e-09
-2.51971e-09
7.59349e-07
-1.94419e-09
7.14737e-07
-3.39984e-09
3.77005e-09
-2.44698e-09
6.86762e-07
-3.10002e-09
3.71743e-09
-3.17625e-09
7.34694e-07
2.94649e-09
-3.71744e-09
7.68962e-07
1.6217e-09
-4.06702e-09
7.91552e-07
2.89215e-16
-4.2393e-09
8.02842e-07
-1.6217e-09
-4.2393e-09
8.02842e-07
-2.94649e-09
-4.06701e-09
7.91552e-07
-3.71744e-09
-3.71743e-09
7.68962e-07
-3.77005e-09
-3.17625e-09
7.34694e-07
-2.44699e-09
6.86762e-07
-3.10002e-09
3.22195e-09
-2.46788e-09
6.43543e-07
-2.68761e-09
3.17625e-09
-3.22195e-09
6.96893e-07
2.51971e-09
-3.77006e-09
7.34694e-07
1.38858e-09
-4.13459e-09
7.59349e-07
-6.9673e-16
-4.31534e-09
7.71596e-07
-1.38858e-09
-4.31534e-09
7.71596e-07
-2.51971e-09
-4.13458e-09
7.59349e-07
-3.17625e-09
-3.77005e-09
7.34694e-07
-3.22195e-09
-3.22195e-09
6.96893e-07
-2.46788e-09
6.43543e-07
-2.68761e-09
2.46788e-09
5.83313e-07
-2.07325e-09
-2.07325e-09
2.44699e-09
6.43543e-07
-2.68761e-09
1.94419e-09
6.86762e-07
-3.10002e-09
1.07503e-09
7.14737e-07
-3.39984e-09
-4.81182e-16
7.28539e-07
-3.54488e-09
-1.07503e-09
7.28539e-07
-3.54488e-09
-1.94419e-09
7.14737e-07
-3.39984e-09
-2.44698e-09
6.86762e-07
-3.10002e-09
-2.46788e-09
6.43543e-07
-2.68761e-09
5.83313e-07
-2.07325e-09
-2.07325e-09
6.89737e-10
6.89739e-10
5.82987e-07
-5.26565e-10
-5.26565e-10
7.31539e-10
9.86856e-10
6.4327e-07
-7.55423e-10
6.03431e-10
1.21233e-09
6.86589e-07
-9.10678e-10
3.40974e-10
1.36998e-09
7.14661e-07
-1.03179e-09
4.60921e-16
1.44924e-09
7.28522e-07
-1.09062e-09
-3.40972e-10
1.44924e-09
7.28522e-07
-1.09062e-09
-6.0343e-10
1.36998e-09
7.14661e-07
-1.03179e-09
-7.31538e-10
1.21233e-09
6.86589e-07
-9.10677e-10
-6.89735e-10
9.86853e-10
6.4327e-07
-7.55422e-10
6.89739e-10
5.82987e-07
-5.26563e-10
-5.26565e-10
9.86854e-10
7.31542e-10
6.4327e-07
-7.55423e-10
1.0294e-09
1.02941e-09
6.96808e-07
8.44718e-10
1.2625e-09
7.34829e-07
4.74417e-10
1.4203e-09
7.59669e-07
8.46967e-16
1.49969e-09
7.7202e-07
-4.74416e-10
1.49969e-09
7.7202e-07
-8.44717e-10
1.4203e-09
7.59669e-07
-1.0294e-09
1.2625e-09
7.34829e-07
-9.86852e-10
1.0294e-09
6.96808e-07
7.31542e-10
6.4327e-07
-7.55421e-10
1.21233e-09
6.03434e-10
6.86589e-07
-9.10679e-10
1.2625e-09
8.4472e-10
7.34829e-07
1.03397e-09
1.03397e-09
7.69419e-07
5.79383e-10
1.16026e-09
7.92267e-07
1.30899e-15
1.22339e-09
8.03697e-07
-5.79381e-10
1.22339e-09
8.03697e-07
-1.03397e-09
1.16026e-09
7.92267e-07
-1.2625e-09
1.03396e-09
7.69419e-07
-1.21233e-09
8.44718e-10
7.34829e-07
6.03433e-10
6.86589e-07
-9.10678e-10
1.36998e-09
3.40975e-10
7.14661e-07
-1.0318e-09
1.42031e-09
4.74418e-10
7.59669e-07
1.16026e-09
5.79382e-10
7.92267e-07
6.49251e-10
6.49251e-10
8.13952e-07
1.17569e-15
6.84079e-10
8.24834e-07
-6.49249e-10
6.84079e-10
8.24834e-07
-1.16026e-09
6.4925e-10
8.13952e-07
-1.42031e-09
5.79381e-10
7.92267e-07
-1.36998e-09
4.74416e-10
7.59669e-07
3.40974e-10
7.14661e-07
-1.03179e-09
1.44924e-09
5.66065e-16
7.28522e-07
-1.09062e-09
1.49969e-09
1.36108e-15
7.7202e-07
1.22339e-09
1.20963e-15
8.03697e-07
6.84079e-10
1.1619e-15
8.24834e-07
8.26385e-16
1.14006e-15
8.35454e-07
-6.84077e-10
9.07452e-16
8.35454e-07
-1.22339e-09
6.26836e-16
8.24834e-07
-1.49969e-09
3.88693e-16
8.03697e-07
-1.44924e-09
5.66978e-18
7.7202e-07
-7.19413e-17
7.28522e-07
-1.09062e-09
1.44924e-09
-3.40973e-10
7.28522e-07
-1.09062e-09
1.49969e-09
-4.74415e-10
7.7202e-07
1.22339e-09
-5.79381e-10
8.03697e-07
6.84078e-10
-6.49249e-10
8.24834e-07
6.65665e-16
-6.84077e-10
8.35454e-07
-6.84077e-10
-6.84077e-10
8.35454e-07
-1.22339e-09
-6.49249e-10
8.24834e-07
-1.49969e-09
-5.7938e-10
8.03697e-07
-1.44924e-09
-4.74416e-10
7.7202e-07
-3.40974e-10
7.28522e-07
-1.09062e-09
1.36998e-09
-6.03432e-10
7.14661e-07
-1.0318e-09
1.42031e-09
-8.44717e-10
7.59669e-07
1.16026e-09
-1.03397e-09
7.92267e-07
6.4925e-10
-1.16026e-09
8.13952e-07
4.9107e-16
-1.22339e-09
8.24834e-07
-6.49249e-10
-1.22339e-09
8.24834e-07
-1.16026e-09
-1.16026e-09
8.13952e-07
-1.42031e-09
-1.03396e-09
7.92267e-07
-1.36998e-09
-8.44718e-10
7.59669e-07
-6.03433e-10
7.14661e-07
-1.03179e-09
1.21233e-09
-7.31541e-10
6.86589e-07
-9.10679e-10
1.2625e-09
-1.0294e-09
7.34829e-07
1.03397e-09
-1.2625e-09
7.69419e-07
5.79382e-10
-1.4203e-09
7.92267e-07
7.00685e-16
-1.49969e-09
8.03697e-07
-5.79381e-10
-1.49968e-09
8.03697e-07
-1.03396e-09
-1.4203e-09
7.92267e-07
-1.2625e-09
-1.2625e-09
7.69419e-07
-1.21233e-09
-1.0294e-09
7.34829e-07
-7.31542e-10
6.86589e-07
-9.10676e-10
9.86853e-10
-6.89738e-10
6.4327e-07
-7.55422e-10
1.0294e-09
-9.86854e-10
6.96808e-07
8.44718e-10
-1.21233e-09
7.34829e-07
4.74417e-10
-1.36998e-09
7.59669e-07
8.66605e-16
-1.44924e-09
7.7202e-07
-4.74415e-10
-1.44924e-09
7.7202e-07
-8.44715e-10
-1.36998e-09
7.59669e-07
-1.0294e-09
-1.21233e-09
7.34829e-07
-9.86851e-10
-9.86854e-10
6.96808e-07
-6.89738e-10
6.4327e-07
-7.55421e-10
6.89736e-10
5.82987e-07
-5.26564e-10
-5.26564e-10
7.3154e-10
6.4327e-07
-7.55422e-10
6.03432e-10
6.86589e-07
-9.10677e-10
3.40973e-10
7.14661e-07
-1.03179e-09
7.03478e-16
7.28522e-07
-1.09062e-09
-3.40972e-10
7.28522e-07
-1.09062e-09
-6.0343e-10
7.14661e-07
-1.03179e-09
-7.31539e-10
6.86589e-07
-9.10677e-10
-6.89737e-10
6.4327e-07
-7.55422e-10
5.82987e-07
-5.26564e-10
-5.26565e-10
1.83798e-10
1.83798e-10
5.82873e-07
-1.26525e-10
-1.26525e-10
2.07475e-10
2.85453e-10
6.43163e-07
-2.01946e-10
1.76512e-10
3.64825e-10
6.86507e-07
-2.52663e-10
1.01577e-10
4.22808e-10
7.14609e-07
-2.94986e-10
4.86665e-16
4.52165e-10
7.28486e-07
-3.15151e-10
-1.01576e-10
4.52165e-10
7.28486e-07
-3.15151e-10
-1.76511e-10
4.22808e-10
7.14609e-07
-2.94986e-10
-2.07473e-10
3.64826e-10
6.86507e-07
-2.52663e-10
-1.83797e-10
2.85454e-10
6.43163e-07
-2.01946e-10
1.83797e-10
5.82873e-07
-1.26524e-10
-1.26524e-10
2.85454e-10
2.07474e-10
6.43163e-07
-2.01947e-10
3.12435e-10
3.12434e-10
6.96754e-07
2.63556e-10
3.98099e-10
7.34844e-07
1.50342e-10
4.58539e-10
7.59747e-07
1.32777e-16
4.89453e-10
7.72133e-07
-1.50341e-10
4.89453e-10
7.72133e-07
-2.63555e-10
4.58539e-10
7.59747e-07
-3.12434e-10
3.981e-10
7.34844e-07
-2.85454e-10
3.12435e-10
6.96754e-07
2.07473e-10
6.43163e-07
-2.01946e-10
3.64825e-10
1.76512e-10
6.86507e-07
-2.52663e-10
3.98098e-10
2.63555e-10
7.34844e-07
3.35158e-10
3.35158e-10
7.69545e-07
1.90686e-10
3.84974e-10
7.92485e-07
-2.57476e-16
4.10407e-10
8.03967e-07
-1.90687e-10
4.10408e-10
8.03967e-07
-3.35159e-10
3.84975e-10
7.92485e-07
-3.98099e-10
3.35159e-10
7.69545e-07
-3.64825e-10
2.63556e-10
7.34844e-07
1.76511e-10
6.86507e-07
-2.52663e-10
4.22807e-10
1.01577e-10
7.14609e-07
-2.94985e-10
4.58538e-10
1.50341e-10
7.59747e-07
3.84974e-10
1.90687e-10
7.92485e-07
2.18708e-10
2.18709e-10
8.14284e-07
-2.33297e-16
2.33006e-10
8.2523e-07
-2.18709e-10
2.33006e-10
8.2523e-07
-3.84974e-10
2.1871e-10
8.14284e-07