/*--------------------------------*- C++ -*----------------------------------*\
| =========                 |                                                 |
| \\      /  F ield         | OpenFOAM: The Open Source CFD Toolbox           |
|  \\    /   O peration     | Version:  2412                                  |
|   \\  /    A nd           | Website:  www.openfoam.com                      |
|    \\/     M anipulation  |                                                 |
\*---------------------------------------------------------------------------*/
FoamFile
{
    version     2.0;
    format      ascii;
    arch        "LSB;label=32;scalar=64";
    class       surfaceScalarField;
    location    "4";
    object      phi;
}
// * * * * * * * * * * * * * * * * * * * * * * * * * * * * * * * * * * * * * //

dimensions      [0 3 -1 0 0 0 0];

oriented        oriented;

internalField   nonuniform List<scalar> 
43700
(
1.80091e-07
1.80091e-07
5.48897e-07
-2.1953e-07
-2.1953e-07
1.32919e-07
1.59446e-07
5.92383e-07
-1.95274e-07
8.79048e-08
1.46323e-07
6.23298e-07
-1.85177e-07
4.35791e-08
1.3761e-07
6.43169e-07
-1.76741e-07
-8.82999e-17
1.33432e-07
6.52945e-07
-1.72869e-07
-4.35791e-08
1.33432e-07
6.52945e-07
-1.72869e-07
-8.79048e-08
1.3761e-07
6.43169e-07
-1.76741e-07
-1.32919e-07
1.46323e-07
6.23298e-07
-1.85177e-07
-1.80091e-07
1.59446e-07
5.92383e-07
-1.95274e-07
1.80091e-07
5.48897e-07
-2.1953e-07
-2.1953e-07
1.59446e-07
1.32919e-07
5.92383e-07
-1.95274e-07
1.1832e-07
1.1832e-07
6.28095e-07
7.78198e-08
1.07361e-07
6.53153e-07
3.84908e-08
1.0008e-07
6.69356e-07
1.03023e-15
9.65285e-08
6.77367e-07
-3.84908e-08
9.65285e-08
6.77367e-07
-7.78197e-08
1.0008e-07
6.69356e-07
-1.1832e-07
1.07361e-07
6.53153e-07
-1.59446e-07
1.1832e-07
6.28095e-07
1.32919e-07
5.92383e-07
-1.95274e-07
1.46323e-07
8.79048e-08
6.23298e-07
-1.85177e-07
1.07361e-07
7.78197e-08
6.53153e-07
7.01414e-08
7.01414e-08
6.74313e-07
3.45854e-08
6.50327e-08
6.88166e-07
4.21956e-16
6.25281e-08
6.95064e-07
-3.45854e-08
6.25281e-08
6.95064e-07
-7.01414e-08
6.50327e-08
6.88166e-07
-1.07361e-07
7.01414e-08
6.74313e-07
-1.46323e-07
7.78197e-08
6.53153e-07
8.79048e-08
6.23298e-07
-1.85177e-07
1.3761e-07
4.35791e-08
6.43169e-07
-1.76741e-07
1.0008e-07
3.84908e-08
6.69356e-07
6.50327e-08
3.45854e-08
6.88166e-07
3.19754e-08
3.19754e-08
7.00617e-07
-3.9659e-16
3.0692e-08
7.06854e-07
-3.19754e-08
3.0692e-08
7.06854e-07
-6.50327e-08
3.19754e-08
7.00617e-07
-1.0008e-07
3.45854e-08
6.88166e-07
-1.3761e-07
3.84908e-08
6.69356e-07
4.35791e-08
6.43169e-07
-1.76741e-07
1.33432e-07
3.08098e-16
6.52945e-07
-1.72869e-07
9.65285e-08
-2.33032e-16
6.77367e-07
6.25281e-08
-5.76737e-17
6.95064e-07
3.0692e-08
1.59993e-16
7.06854e-07
-8.01711e-18
-7.40856e-17
7.12777e-07
-3.0692e-08
5.48873e-16
7.12777e-07
-6.25281e-08
1.07757e-15
7.06854e-07
-9.65285e-08
4.61312e-16
6.95064e-07
-1.33432e-07
-4.91574e-16
6.77367e-07
-3.89745e-17
6.52945e-07
-1.72869e-07
1.33432e-07
-4.35791e-08
6.52945e-07
-1.72869e-07
9.65285e-08
-3.84908e-08
6.77367e-07
6.25281e-08
-3.45854e-08
6.95064e-07
3.0692e-08
-3.19754e-08
7.06854e-07
6.97584e-16
-3.0692e-08
7.12777e-07
-3.0692e-08
-3.0692e-08
7.12777e-07
-6.25281e-08
-3.19754e-08
7.06854e-07
-9.65285e-08
-3.45854e-08
6.95064e-07
-1.33432e-07
-3.84908e-08
6.77367e-07
-4.35791e-08
6.52945e-07
-1.72869e-07
1.3761e-07
-8.79048e-08
6.43169e-07
-1.76741e-07
1.0008e-07
-7.78198e-08
6.69356e-07
6.50327e-08
-7.01414e-08
6.88166e-07
3.19754e-08
-6.50327e-08
7.00617e-07
4.11586e-16
-6.25281e-08
7.06854e-07
-3.19754e-08
-6.25281e-08
7.06854e-07
-6.50327e-08
-6.50327e-08
7.00617e-07
-1.0008e-07
-7.01414e-08
6.88166e-07
-1.3761e-07
-7.78197e-08
6.69356e-07
-8.79048e-08
6.43169e-07
-1.76741e-07
1.46323e-07
-1.32919e-07
6.23298e-07
-1.85177e-07
1.07361e-07
-1.1832e-07
6.53153e-07
7.01414e-08
-1.07361e-07
6.74313e-07
3.45854e-08
-1.0008e-07
6.88166e-07
-1.17835e-16
-9.65285e-08
6.95064e-07
-3.45854e-08
-9.65285e-08
6.95064e-07
-7.01414e-08
-1.0008e-07
6.88166e-07
-1.07361e-07
-1.07361e-07
6.74313e-07
-1.46323e-07
-1.1832e-07
6.53153e-07
-1.32919e-07
6.23298e-07
-1.85177e-07
1.59446e-07
-1.80091e-07
5.92383e-07
-1.95274e-07
1.1832e-07
-1.59446e-07
6.28095e-07
7.78197e-08
-1.46323e-07
6.53153e-07
3.84908e-08
-1.3761e-07
6.69356e-07
-5.93669e-16
-1.33432e-07
6.77367e-07
-3.84908e-08
-1.33432e-07
6.77367e-07
-7.78197e-08
-1.3761e-07
6.69356e-07
-1.1832e-07
-1.46323e-07
6.53153e-07
-1.59446e-07
-1.59446e-07
6.28095e-07
-1.80091e-07
5.92383e-07
-1.95274e-07
1.80091e-07
5.48897e-07
-2.1953e-07
-2.1953e-07
1.32919e-07
5.92383e-07
-1.95274e-07
8.79048e-08
6.23298e-07
-1.85177e-07
4.35791e-08
6.43169e-07
-1.76741e-07
5.91521e-16
6.52945e-07
-1.72869e-07
-4.35791e-08
6.52945e-07
-1.72869e-07
-8.79048e-08
6.43169e-07
-1.76741e-07
-1.32919e-07
6.23298e-07
-1.85177e-07
-1.80091e-07
5.92383e-07
-1.95274e-07
5.48897e-07
-2.1953e-07
-2.1953e-07
9.49186e-08
9.49186e-08
5.79014e-07
-1.09977e-07
-1.09977e-07
7.43986e-08
9.29531e-08
6.28808e-07
-1.08857e-07
5.09711e-08
9.11426e-08
6.63433e-07
-1.0785e-07
2.58222e-08
8.95636e-08
6.85325e-07
-1.0657e-07
-5.40548e-16
8.88473e-08
6.96003e-07
-1.06083e-07
-2.58222e-08
8.88473e-08
6.96003e-07
-1.06083e-07
-5.09711e-08
8.95636e-08
6.85325e-07
-1.0657e-07
-7.43986e-08
9.11426e-08
6.63433e-07
-1.0785e-07
-9.49186e-08
9.29531e-08
6.28808e-07
-1.08857e-07
9.49186e-08
5.79014e-07
-1.09977e-07
-1.09977e-07
9.29531e-08
7.43986e-08
6.28808e-07
-1.08857e-07
7.24611e-08
7.24611e-08
6.69079e-07
4.95152e-08
7.07184e-08
6.96523e-07
2.5077e-08
6.93601e-08
7.13998e-07
8.29072e-16
6.87043e-08
7.22587e-07
-2.5077e-08
6.87043e-08
7.22587e-07
-4.95152e-08
6.93601e-08
7.13998e-07
-7.2461e-08
7.07184e-08
6.96523e-07
-9.29531e-08
7.24611e-08
6.69079e-07
7.43986e-08
6.28808e-07
-1.08857e-07
9.11426e-08
5.09711e-08
6.63433e-07
-1.0785e-07
7.07184e-08
4.95152e-08
6.96523e-07
4.82271e-08
4.82271e-08
7.19296e-07
2.44252e-08
4.72718e-08
7.34056e-07
8.12677e-16
4.68006e-08
7.41393e-07
-2.44252e-08
4.68006e-08
7.41393e-07
-4.82271e-08
4.72718e-08
7.34056e-07
-7.07184e-08
4.82271e-08
7.19296e-07
-9.11426e-08
4.95152e-08
6.96523e-07
5.09711e-08
6.63433e-07
-1.0785e-07
8.95636e-08
2.58222e-08
6.85325e-07
-1.0657e-07
6.93601e-08
2.5077e-08
7.13998e-07
4.72718e-08
2.44252e-08
7.34056e-07
2.39467e-08
2.39467e-08
7.47267e-07
7.22038e-16
2.37078e-08
7.53893e-07
-2.39467e-08
2.37078e-08
7.53893e-07
-4.72718e-08
2.39467e-08
7.47267e-07
-6.93601e-08
2.44252e-08
7.34056e-07
-8.95636e-08
2.5077e-08
7.13998e-07
2.58222e-08
6.85325e-07
-1.0657e-07
8.88473e-08
-5.80286e-16
6.96003e-07
-1.06083e-07
6.87043e-08
8.30075e-16
7.22587e-07
4.68006e-08
1.00244e-15
7.41393e-07
2.37078e-08
6.8486e-16
7.53893e-07
9.21048e-16
8.94384e-16
7.60192e-07
-2.37078e-08
1.43874e-15
7.60192e-07
-4.68006e-08
1.50185e-15
7.53893e-07
-6.87043e-08
7.36956e-16
7.41393e-07
-8.88473e-08
-9.72689e-16
7.22587e-07
-1.61228e-15
6.96003e-07
-1.06083e-07
8.88473e-08
-2.58222e-08
6.96003e-07
-1.06083e-07
6.87043e-08
-2.5077e-08
7.22587e-07
4.68006e-08
-2.44252e-08
7.41393e-07
2.37078e-08
-2.39467e-08
7.53893e-07
1.49687e-15
-2.37078e-08
7.60192e-07
-2.37078e-08
-2.37078e-08
7.60192e-07
-4.68006e-08
-2.39467e-08
7.53893e-07
-6.87043e-08
-2.44252e-08
7.41393e-07
-8.88473e-08
-2.5077e-08
7.22587e-07
-2.58222e-08
6.96003e-07
-1.06083e-07
8.95636e-08
-5.09711e-08
6.85325e-07
-1.0657e-07
6.93601e-08
-4.95152e-08
7.13998e-07
4.72718e-08
-4.82271e-08
7.34056e-07
2.39467e-08
-4.72718e-08
7.47267e-07
1.49494e-15
-4.68006e-08
7.53893e-07
-2.39467e-08
-4.68006e-08
7.53893e-07
-4.72718e-08
-4.72718e-08
7.47267e-07
-6.93601e-08
-4.82271e-08
7.34056e-07
-8.95636e-08
-4.95152e-08
7.13998e-07
-5.09711e-08
6.85325e-07
-1.0657e-07
9.11426e-08
-7.43986e-08
6.63433e-07
-1.0785e-07
7.07184e-08
-7.24611e-08
6.96523e-07
4.82271e-08
-7.07184e-08
7.19296e-07
2.44252e-08
-6.93601e-08
7.34056e-07
5.58283e-16
-6.87043e-08
7.41393e-07
-2.44252e-08
-6.87043e-08
7.41393e-07
-4.82271e-08
-6.93601e-08
7.34056e-07
-7.07184e-08
-7.07184e-08
7.19296e-07
-9.11426e-08
-7.24611e-08
6.96523e-07
-7.43986e-08
6.63433e-07
-1.0785e-07
9.29531e-08
-9.49186e-08
6.28808e-07
-1.08857e-07
7.24611e-08
-9.29531e-08
6.69079e-07
4.95152e-08
-9.11426e-08
6.96523e-07
2.5077e-08
-8.95636e-08
7.13998e-07
-1.70084e-15
-8.88473e-08
7.22587e-07
-2.5077e-08
-8.88473e-08
7.22587e-07
-4.95152e-08
-8.95636e-08
7.13998e-07
-7.24611e-08
-9.11426e-08
6.96523e-07
-9.29531e-08
-9.29531e-08
6.69079e-07
-9.49186e-08
6.28808e-07
-1.08857e-07
9.49186e-08
5.79014e-07
-1.09977e-07
-1.09977e-07
7.43986e-08
6.28808e-07
-1.08857e-07
5.09711e-08
6.63433e-07
-1.0785e-07
2.58222e-08
6.85325e-07
-1.0657e-07
-1.9814e-15
6.96003e-07
-1.06083e-07
-2.58222e-08
6.96003e-07
-1.06083e-07
-5.09711e-08
6.85325e-07
-1.0657e-07
-7.43986e-08
6.63433e-07
-1.0785e-07
-9.49186e-08
6.28808e-07
-1.08857e-07
5.79014e-07
-1.09977e-07
-1.09977e-07
5.73747e-08
5.73747e-08
5.85678e-07
-6.07066e-08
-6.07066e-08
4.80836e-08
6.03979e-08
6.41782e-07
-6.40811e-08
3.43926e-08
6.1998e-08
6.8106e-07
-6.59331e-08
1.78731e-08
6.26717e-08
7.06037e-07
-6.68645e-08
-7.14691e-16
6.29759e-08
7.18249e-07
-6.73486e-08
-1.78731e-08
6.29759e-08
7.18249e-07
-6.73486e-08
-3.43926e-08
6.26717e-08
7.06037e-07
-6.68645e-08
-4.80836e-08
6.1998e-08
6.8106e-07
-6.59331e-08
-5.73747e-08
6.03978e-08
6.41782e-07
-6.40811e-08
5.73747e-08
5.85678e-07
-6.07066e-08
-6.07066e-08
6.03979e-08
4.80836e-08
6.41782e-07
-6.40811e-08
5.05184e-08
5.05184e-08
6.88838e-07
3.61437e-08
5.17523e-08
7.21143e-07
1.8792e-08
5.22224e-08
7.41799e-07
2.00515e-15
5.23962e-08
7.51959e-07
-1.8792e-08
5.23962e-08
7.51959e-07
-3.61437e-08
5.22224e-08
7.41799e-07
-5.05184e-08
5.17523e-08
7.21143e-07
-6.03978e-08
5.05184e-08
6.88838e-07
4.80836e-08
6.41782e-07
-6.40811e-08
6.1998e-08
3.43926e-08
6.8106e-07
-6.59331e-08
5.17523e-08
3.61437e-08
7.21143e-07
3.69816e-08
3.69816e-08
7.48837e-07
1.92211e-08
3.72728e-08
7.66766e-07
1.77824e-15
3.73586e-08
7.75651e-07
-1.92211e-08
3.73586e-08
7.75651e-07
-3.69816e-08
3.72728e-08
7.66766e-07
-5.17523e-08
3.69816e-08
7.48837e-07
-6.1998e-08
3.61437e-08
7.21143e-07
3.43926e-08
6.8106e-07
-6.59331e-08
6.26717e-08
1.78731e-08
7.06037e-07
-6.68645e-08
5.22224e-08
1.8792e-08
7.41799e-07
3.72728e-08
1.92211e-08
7.66766e-07
1.9362e-08
1.9362e-08
7.83089e-07
1.32058e-15
1.93964e-08
7.91217e-07
-1.9362e-08
1.93964e-08
7.91217e-07
-3.72728e-08
1.9362e-08
7.83089e-07
-5.22224e-08
1.92211e-08
7.66766e-07
-6.26717e-08
1.8792e-08
7.41799e-07
1.78731e-08
7.06037e-07
-6.68645e-08
6.29759e-08
4.64045e-16
7.18249e-07
-6.73486e-08
5.23962e-08
2.63692e-15
7.51959e-07
3.73586e-08
2.33626e-15
7.75651e-07
1.93964e-08
1.98416e-15
7.91217e-07
9.9935e-16
1.47805e-15
7.98985e-07
-1.93964e-08
1.61784e-15
7.98985e-07
-3.73586e-08
9.87067e-16
7.91217e-07
-5.23962e-08
-1.86929e-16
7.75651e-07
-6.29759e-08
-2.62291e-15
7.51959e-07
-3.7015e-15
7.18249e-07
-6.73486e-08
6.29759e-08
-1.78731e-08
7.18249e-07
-6.73486e-08
5.23962e-08
-1.8792e-08
7.51959e-07
3.73586e-08
-1.92211e-08
7.75651e-07
1.93964e-08
-1.9362e-08
7.91217e-07
1.0277e-15
-1.93964e-08
7.98985e-07
-1.93964e-08
-1.93964e-08
7.98985e-07
-3.73586e-08
-1.9362e-08
7.91217e-07
-5.23962e-08
-1.92211e-08
7.75651e-07
-6.29759e-08
-1.8792e-08
7.51959e-07
-1.78731e-08
7.18249e-07
-6.73486e-08
6.26717e-08
-3.43926e-08
7.06037e-07
-6.68645e-08
5.22224e-08
-3.61437e-08
7.41799e-07
3.72728e-08
-3.69816e-08
7.66766e-07
1.9362e-08
-3.72728e-08
7.83089e-07
4.20176e-16
-3.73586e-08
7.91217e-07
-1.9362e-08
-3.73586e-08
7.91217e-07
-3.72728e-08
-3.72728e-08
7.83089e-07
-5.22225e-08
-3.69816e-08
7.66766e-07
-6.26717e-08
-3.61437e-08
7.41799e-07
-3.43926e-08
7.06037e-07
-6.68645e-08
6.1998e-08
-4.80836e-08
6.8106e-07
-6.59331e-08
5.17523e-08
-5.05184e-08
7.21143e-07
3.69816e-08
-5.17523e-08
7.48837e-07
1.92211e-08
-5.22224e-08
7.66766e-07
-2.70121e-16
-5.23962e-08
7.75651e-07
-1.92211e-08
-5.23962e-08
7.75651e-07
-3.69816e-08
-5.22224e-08
7.66766e-07
-5.17523e-08
-5.17523e-08
7.48837e-07
-6.1998e-08
-5.05184e-08
7.21143e-07
-4.80836e-08
6.8106e-07
-6.59331e-08
6.03978e-08
-5.73747e-08
6.41782e-07
-6.40811e-08
5.05184e-08
-6.03978e-08
6.88838e-07
3.61437e-08
-6.1998e-08
7.21143e-07
1.8792e-08
-6.26717e-08
7.41799e-07
-2.29536e-15
-6.29759e-08
7.51959e-07
-1.8792e-08
-6.29759e-08
7.51959e-07
-3.61437e-08
-6.26717e-08
7.41799e-07
-5.05184e-08
-6.1998e-08
7.21143e-07
-6.03978e-08
-6.03978e-08
6.88838e-07
-5.73747e-08
6.41782e-07
-6.40811e-08
5.73747e-08
5.85678e-07
-6.07066e-08
-6.07066e-08
4.80836e-08
6.41782e-07
-6.40811e-08
3.43926e-08
6.8106e-07
-6.59331e-08
1.78731e-08
7.06037e-07
-6.68645e-08
-2.14749e-15
7.18249e-07
-6.73486e-08
-1.78731e-08
7.18249e-07
-6.73486e-08
-3.43926e-08
7.06037e-07
-6.68645e-08
-4.80836e-08
6.8106e-07
-6.59331e-08
-5.73747e-08
6.41782e-07
-6.40811e-08
5.85678e-07
-6.07066e-08
-6.07066e-08
2.03971e-08
2.03971e-08
5.84522e-07
-1.98188e-08
-1.98188e-08
1.84565e-08
2.38966e-08
6.42988e-07
-2.31622e-08
1.38494e-08
2.62244e-08
6.84559e-07
-2.51169e-08
7.40541e-09
2.76173e-08
7.11294e-07
-2.64305e-08
-4.35684e-16
2.82942e-08
7.24442e-07
-2.7082e-08
-7.40541e-09
2.82942e-08
7.24442e-07
-2.7082e-08
-1.38494e-08
2.76173e-08
7.11294e-07
-2.64305e-08
-1.84565e-08
2.62244e-08
6.84559e-07
-2.51169e-08
-2.03972e-08
2.38966e-08
6.42988e-07
-2.31622e-08
2.03971e-08
5.84522e-07
-1.98188e-08
-1.98188e-08
2.38966e-08
1.84565e-08
6.42988e-07
-2.31622e-08
2.14814e-08
2.14814e-08
6.93669e-07
1.6122e-08
2.35538e-08
7.29173e-07
8.61441e-09
2.47709e-08
7.52153e-07
1.00571e-15
2.53448e-08
7.63522e-07
-8.61441e-09
2.53448e-08
7.63522e-07
-1.6122e-08
2.47709e-08
7.52153e-07
-2.14814e-08
2.35538e-08
7.29173e-07
-2.38966e-08
2.14814e-08
6.93669e-07
1.84565e-08
6.42988e-07
-2.31622e-08
2.62244e-08
1.38494e-08
6.84559e-07
-2.51169e-08
2.35538e-08
1.6122e-08
7.29173e-07
1.76471e-08
1.76471e-08
7.6065e-07
9.41935e-09
1.8529e-08
7.81235e-07
1.11878e-15
1.89357e-08
7.9148e-07
-9.41934e-09
1.89357e-08
7.9148e-07
-1.76471e-08
1.8529e-08
7.81235e-07
-2.35538e-08
1.76471e-08
7.6065e-07
-2.62244e-08
1.6122e-08
7.29173e-07
1.38494e-08
6.84559e-07
-2.51169e-08
2.76173e-08
7.40541e-09
7.11294e-07
-2.64305e-08
2.47709e-08
8.61441e-09
7.52153e-07
1.8529e-08
9.41935e-09
7.81235e-07
9.88083e-09
9.88083e-09
8.00385e-07
8.98898e-16
1.00912e-08
8.09943e-07
-9.88083e-09
1.00912e-08
8.09943e-07
-1.8529e-08
9.88083e-09
8.00385e-07
-2.47709e-08
9.41934e-09
7.81235e-07
-2.76173e-08
8.6144e-09
7.52153e-07
7.40541e-09
7.11294e-07
-2.64305e-08
2.82942e-08
1.23157e-15
7.24442e-07
-2.7082e-08
2.53448e-08
1.05349e-15
7.63522e-07
1.89357e-08
1.04763e-15
7.9148e-07
1.00912e-08
1.16407e-15
8.09943e-07
1.01781e-15
1.07568e-15
8.19167e-07
-1.00912e-08
1.50173e-15
8.19167e-07
-1.89357e-08
1.17114e-15
8.09943e-07
-2.53448e-08
3.82217e-16
7.9148e-07
-2.82942e-08
-2.12719e-15
7.63522e-07
-2.88341e-15
7.24442e-07
-2.7082e-08
2.82942e-08
-7.40541e-09
7.24442e-07
-2.7082e-08
2.53448e-08
-8.61441e-09
7.63522e-07
1.89357e-08
-9.41934e-09
7.9148e-07
1.00912e-08
-9.88083e-09
8.09943e-07
1.34043e-15
-1.00912e-08
8.19167e-07
-1.00912e-08
-1.00912e-08
8.19167e-07
-1.89357e-08
-9.88083e-09
8.09943e-07
-2.53448e-08
-9.41934e-09
7.9148e-07
-2.82942e-08
-8.61441e-09
7.63522e-07
-7.40542e-09
7.24442e-07
-2.7082e-08
2.76173e-08
-1.38494e-08
7.11294e-07
-2.64305e-08
2.47709e-08
-1.6122e-08
7.52153e-07
1.8529e-08
-1.76471e-08
7.81235e-07
9.88083e-09
-1.8529e-08
8.00385e-07
9.70083e-16
-1.89357e-08
8.09943e-07
-9.88083e-09
-1.89357e-08
8.09943e-07
-1.8529e-08
-1.8529e-08
8.00385e-07
-2.47709e-08
-1.76471e-08
7.81235e-07
-2.76173e-08
-1.6122e-08
7.52153e-07
-1.38494e-08
7.11294e-07
-2.64305e-08
2.62244e-08
-1.84565e-08
6.84559e-07
-2.51169e-08
2.35538e-08
-2.14814e-08
7.29173e-07
1.76471e-08
-2.35538e-08
7.6065e-07
9.41934e-09
-2.47709e-08
7.81235e-07
6.19908e-16
-2.53448e-08
7.9148e-07
-9.41934e-09
-2.53448e-08
7.9148e-07
-1.76471e-08
-2.47709e-08
7.81235e-07
-2.35538e-08
-2.35538e-08
7.6065e-07
-2.62244e-08
-2.14814e-08
7.29173e-07
-1.84565e-08
6.84559e-07
-2.51169e-08
2.38966e-08
-2.03971e-08
6.42988e-07
-2.31622e-08
2.14814e-08
-2.38966e-08
6.93669e-07
1.6122e-08
-2.62244e-08
7.29173e-07
8.61441e-09
-2.76173e-08
7.52153e-07
-1.18727e-15
-2.82942e-08
7.63522e-07
-8.61441e-09
-2.82942e-08
7.63522e-07
-1.6122e-08
-2.76173e-08
7.52153e-07
-2.14814e-08
-2.62244e-08
7.29173e-07
-2.38966e-08
-2.38966e-08
6.93669e-07
-2.03972e-08
6.42988e-07
-2.31622e-08
2.03971e-08
5.84522e-07
-1.98188e-08
-1.98188e-08
1.84565e-08
6.42988e-07
-2.31622e-08
1.38494e-08
6.84559e-07
-2.51169e-08
7.40541e-09
7.11294e-07
-2.64305e-08
-2.00961e-15
7.24442e-07
-2.7082e-08
-7.40542e-09
7.24442e-07
-2.7082e-08
-1.38494e-08
7.11294e-07
-2.64305e-08
-1.84565e-08
6.84559e-07
-2.51169e-08
-2.03972e-08
6.42988e-07
-2.31622e-08
5.84522e-07
-1.98188e-08
-1.98188e-08
7.27166e-09
7.27166e-09
5.83296e-07
-6.65885e-09
-6.65885e-09
6.81975e-09
8.88141e-09
6.42611e-07
-8.05171e-09
5.23647e-09
1.00126e-08
6.85072e-07
-8.94249e-09
2.83849e-09
1.07379e-08
7.12523e-07
-9.56903e-09
3.02623e-16
1.10965e-08
7.26061e-07
-9.87709e-09
-2.83849e-09
1.10965e-08
7.26061e-07
-9.87709e-09
-5.23647e-09
1.07379e-08
7.12523e-07
-9.56903e-09
-6.81975e-09
1.00126e-08
6.85072e-07
-8.94249e-09
-7.27165e-09
8.8814e-09
6.42611e-07
-8.05171e-09
7.27166e-09
5.83296e-07
-6.65884e-09
-6.65885e-09
8.88141e-09
6.81975e-09
6.42611e-07
-8.05171e-09
8.32071e-09
8.32071e-09
6.9479e-07
6.40386e-09
9.40227e-09
7.317e-07
3.47068e-09
1.00798e-08
7.55744e-07
1.81959e-15
1.04106e-08
7.67679e-07
-3.47068e-09
1.04106e-08
7.67679e-07
-6.40385e-09
1.00798e-08
7.55744e-07
-8.3207e-09
9.40227e-09
7.317e-07
-8.8814e-09
8.3207e-09
6.9479e-07
6.81976e-09
6.42611e-07
-8.05171e-09
1.00126e-08
5.23647e-09
6.85072e-07
-8.94249e-09
9.40228e-09
6.40386e-09
7.317e-07
7.24095e-09
7.24095e-09
7.64973e-07
3.9245e-09
7.7601e-09
7.86872e-07
1.67579e-15
8.01079e-09
7.97804e-07
-3.9245e-09
8.01079e-09
7.97804e-07
-7.24095e-09
7.7601e-09
7.86872e-07
-9.40227e-09
7.24095e-09
7.64973e-07
-1.00126e-08
6.40385e-09
7.317e-07
5.23647e-09
6.85072e-07
-8.94249e-09
1.07379e-08
2.83849e-09
7.12523e-07
-9.56903e-09
1.00798e-08
3.47068e-09
7.55744e-07
7.7601e-09
3.9245e-09
7.86872e-07
4.2057e-09
4.2057e-09
8.07494e-07
1.24842e-15
4.34059e-09
8.17819e-07
-4.20569e-09
4.34058e-09
8.17819e-07
-7.7601e-09
4.2057e-09
8.07494e-07
-1.00798e-08
3.9245e-09
7.86872e-07
-1.07379e-08
3.47068e-09
7.55744e-07
2.83849e-09
7.12523e-07
-9.56903e-09
1.10965e-08
2.08746e-16
7.26061e-07
-9.87709e-09
1.04106e-08
1.96562e-15
7.67679e-07
8.01079e-09
2.18098e-15
7.97804e-07
4.34058e-09
1.73538e-15
8.17819e-07
8.23964e-16
1.28312e-15
8.27848e-07
-4.34058e-09
1.04217e-15
8.27848e-07
-8.01079e-09
4.78828e-16
8.17819e-07
-1.04106e-08
-2.8058e-16
7.97804e-07
-1.10965e-08
-9.44293e-16
7.67679e-07
-4.00458e-17
7.26061e-07
-9.87708e-09
1.10965e-08
-2.83849e-09
7.26061e-07
-9.87709e-09
1.04106e-08
-3.47068e-09
7.67679e-07
8.01079e-09
-3.9245e-09
7.97804e-07
4.34058e-09
-4.20569e-09
8.17819e-07
5.20276e-16
-4.34058e-09
8.27848e-07
-4.34058e-09
-4.34058e-09
8.27848e-07
-8.01079e-09
-4.20569e-09
8.17819e-07
-1.04106e-08
-3.9245e-09
7.97804e-07
-1.10965e-08
-3.47068e-09
7.67679e-07
-2.83849e-09
7.26061e-07
-9.87708e-09
1.07379e-08
-5.23647e-09
7.12523e-07
-9.56903e-09
1.00798e-08
-6.40385e-09
7.55744e-07
7.7601e-09
-7.24095e-09
7.86872e-07
4.2057e-09
-7.7601e-09
8.07494e-07
3.91486e-17
-8.01079e-09
8.17819e-07
-4.2057e-09
-8.01079e-09
8.17819e-07
-7.7601e-09
-7.7601e-09
8.07494e-07
-1.00798e-08
-7.24095e-09
7.86872e-07
-1.07379e-08
-6.40385e-09
7.55744e-07
-5.23647e-09
7.12523e-07
-9.56903e-09
1.00126e-08
-6.81975e-09
6.85072e-07
-8.94249e-09
9.40227e-09
-8.3207e-09
7.317e-07
7.24095e-09
-9.40227e-09
7.64973e-07
3.9245e-09
-1.00798e-08
7.86872e-07
-3.65835e-16
-1.04106e-08
7.97804e-07
-3.9245e-09
-1.04106e-08
7.97804e-07
-7.24095e-09
-1.00798e-08
7.86872e-07
-9.40227e-09
-9.40227e-09
7.64973e-07
-1.00126e-08
-8.3207e-09
7.317e-07
-6.81975e-09
6.85072e-07
-8.94249e-09
8.8814e-09
-7.27166e-09
6.42611e-07
-8.05171e-09
8.3207e-09
-8.8814e-09
6.9479e-07
6.40385e-09
-1.00126e-08
7.317e-07
3.47068e-09
-1.07379e-08
7.55744e-07
-1.46436e-15
-1.10965e-08
7.67679e-07
-3.47068e-09
-1.10965e-08
7.67679e-07
-6.40385e-09
-1.07379e-08
7.55744e-07
-8.3207e-09
-1.00126e-08
7.317e-07
-8.8814e-09
-8.8814e-09
6.9479e-07
-7.27166e-09
6.42611e-07
-8.05171e-09
7.27166e-09
5.83296e-07
-6.65884e-09
-6.65884e-09
6.81975e-09
6.42611e-07
-8.05171e-09
5.23647e-09
6.85072e-07
-8.94249e-09
2.83849e-09
7.12523e-07
-9.56903e-09
-7.21918e-16
7.26061e-07
-9.87709e-09
-2.83849e-09
7.26061e-07
-9.87708e-09
-5.23647e-09
7.12523e-07
-9.56903e-09
-6.81976e-09
6.85072e-07
-8.94249e-09
-7.27166e-09
6.42611e-07
-8.05171e-09
5.83296e-07
-6.65885e-09
-6.65885e-09
2.3781e-09
2.3781e-09
5.82543e-07
-2.0017e-09
-2.0017e-09
2.35408e-09
3.09798e-09
6.42126e-07
-2.58949e-09
1.86808e-09
3.62018e-09
6.84921e-07
-2.98308e-09
1.03213e-09
3.96708e-09
7.12661e-07
-3.26911e-09
-2.93451e-17
4.1393e-09
7.26362e-07
-3.40778e-09
-1.03213e-09
4.1393e-09
7.26362e-07
-3.40778e-09
-1.86808e-09
3.96708e-09
7.12661e-07
-3.26911e-09
-2.35408e-09
3.62018e-09
6.84921e-07
-2.98308e-09
-2.3781e-09
3.09798e-09
6.42126e-07
-2.5895e-09
2.3781e-09
5.82543e-07
-2.0017e-09
-2.0017e-09
3.09798e-09
2.35408e-09
6.42126e-07
-2.58949e-09
3.04948e-09
3.04948e-09
6.94887e-07
2.41692e-09
3.5649e-09
7.32388e-07
1.33122e-09
3.89776e-09
7.56899e-07
-1.9459e-16
4.06199e-09
7.69088e-07
-1.33122e-09
4.06199e-09
7.69088e-07
-2.41692e-09
3.89776e-09
7.56899e-07
-3.04948e-09
3.5649e-09
7.32388e-07
-3.09798e-09
3.04948e-09
6.94887e-07
2.35408e-09
6.42126e-07
-2.5895e-09
3.62018e-09
1.86808e-09
6.84921e-07
-2.98308e-09
3.5649e-09
2.41692e-09
7.32388e-07
2.82358e-09
2.82358e-09
7.66456e-07
1.55351e-09
3.08286e-09
7.88957e-07
5.88919e-17
3.20958e-09
8.0021e-07
-1.55351e-09
3.20958e-09
8.0021e-07
-2.82358e-09
3.08286e-09
7.88957e-07
-3.5649e-09
2.82358e-09
7.66456e-07
-3.62018e-09
2.41692e-09
7.32388e-07
1.86808e-09
6.84921e-07
-2.98308e-09
3.96708e-09
1.03213e-09
7.12661e-07
-3.26911e-09
3.89776e-09
1.33122e-09
7.56899e-07
3.08286e-09
1.55351e-09
7.88957e-07
1.695e-09
1.695e-09
8.1027e-07
6.56538e-16
1.76384e-09
8.20959e-07
-1.695e-09
1.76384e-09
8.20959e-07
-3.08286e-09
1.695e-09
8.1027e-07
-3.89776e-09
1.55351e-09
7.88957e-07
-3.96708e-09
1.33122e-09
7.56899e-07
1.03213e-09
7.12661e-07
-3.26911e-09
4.1393e-09
4.51291e-16
7.26362e-07
-3.40778e-09
4.06199e-09
2.11392e-16
7.69088e-07
3.20958e-09
-4.40723e-18
8.0021e-07
1.76384e-09
3.71706e-16
8.20959e-07
1.00026e-15
8.32691e-16
8.31376e-07
-1.76384e-09
1.08543e-15
8.31376e-07
-3.20958e-09
1.21833e-15
8.20959e-07
-4.06199e-09
7.70982e-16
8.0021e-07
-4.1393e-09
-3.66897e-16
7.69088e-07
-3.88855e-16
7.26362e-07
-3.40778e-09
4.1393e-09
-1.03213e-09
7.26362e-07
-3.40778e-09
4.06199e-09
-1.33122e-09
7.69088e-07
3.20958e-09
-1.55351e-09
8.0021e-07
1.76384e-09
-1.695e-09
8.20959e-07
1.38752e-15
-1.76384e-09
8.31376e-07
-1.76384e-09
-1.76384e-09
8.31376e-07
-3.20958e-09
-1.695e-09
8.20959e-07
-4.06199e-09
-1.55351e-09
8.0021e-07
-4.1393e-09
-1.33122e-09
7.69088e-07
-1.03213e-09
7.26362e-07
-3.40778e-09
3.96708e-09
-1.86808e-09
7.12661e-07
-3.26911e-09
3.89776e-09
-2.41692e-09
7.56899e-07
3.08286e-09
-2.82358e-09
7.88957e-07
1.695e-09
-3.08286e-09
8.1027e-07
1.21448e-15
-3.20958e-09
8.20959e-07
-1.695e-09
-3.20958e-09
8.20959e-07
-3.08286e-09
-3.08286e-09
8.1027e-07
-3.89776e-09
-2.82357e-09
7.88957e-07
-3.96708e-09
-2.41692e-09
7.56899e-07
-1.86808e-09
7.12661e-07
-3.26911e-09
3.62018e-09
-2.35407e-09
6.84921e-07
-2.98308e-09
3.5649e-09
-3.04948e-09
7.32388e-07
2.82358e-09
-3.5649e-09
7.66456e-07
1.55351e-09
-3.89776e-09
7.88957e-07
3.69606e-16
-4.06199e-09
8.0021e-07
-1.55351e-09
-4.06199e-09
8.0021e-07
-2.82358e-09
-3.89776e-09
7.88957e-07
-3.5649e-09
-3.56489e-09
7.66456e-07
-3.62018e-09
-3.04948e-09
7.32388e-07
-2.35408e-09
6.84921e-07
-2.98308e-09
3.09798e-09
-2.3781e-09
6.42126e-07
-2.58949e-09
3.04948e-09
-3.09798e-09
6.94887e-07
2.41692e-09
-3.62018e-09
7.32388e-07
1.33122e-09
-3.96708e-09
7.56899e-07
-5.88712e-16
-4.1393e-09
7.69088e-07
-1.33122e-09
-4.1393e-09
7.69088e-07
-2.41692e-09
-3.96708e-09
7.56899e-07
-3.04948e-09
-3.62018e-09
7.32388e-07
-3.09798e-09
-3.09798e-09
6.94887e-07
-2.3781e-09
6.42126e-07
-2.5895e-09
2.3781e-09
5.82543e-07
-2.0017e-09
-2.0017e-09
2.35408e-09
6.42126e-07
-2.58949e-09
1.86808e-09
6.84921e-07
-2.98308e-09
1.03213e-09
7.12661e-07
-3.26911e-09
-4.62795e-16
7.26362e-07
-3.40778e-09
-1.03213e-09
7.26362e-07
-3.40778e-09
-1.86808e-09
7.12661e-07
-3.26911e-09
-2.35407e-09
6.84921e-07
-2.98308e-09
-2.3781e-09
6.42126e-07
-2.5895e-09
5.82543e-07
-2.0017e-09
-2.0017e-09
6.70311e-10
6.70313e-10
5.82233e-07
-5.1529e-10
-5.1529e-10
7.07813e-10
9.5366e-10
6.41869e-07
-7.3456e-10
5.82275e-10
1.16795e-09
6.84761e-07
-8.82603e-10
3.28502e-10
1.31746e-09
7.12596e-07
-9.97905e-10
4.45432e-16
1.39271e-09
7.26351e-07
-1.05401e-09
-3.28501e-10
1.39271e-09
7.26351e-07
-1.05401e-09
-5.82274e-10
1.31746e-09
7.12596e-07
-9.97905e-10
-7.07813e-10
1.16795e-09
6.84761e-07
-8.82602e-10
-6.70309e-10
9.53658e-10
6.41869e-07
-7.34559e-10
6.70312e-10
5.82233e-07
-5.15289e-10
-5.1529e-10
9.53658e-10
7.07817e-10
6.41869e-07
-7.3456e-10
9.91116e-10
9.9112e-10
6.94812e-07
8.1161e-10
1.21233e-09
7.32523e-07
4.55309e-10
1.36194e-09
7.57211e-07
8.6975e-16
1.43726e-09
7.69498e-07
-4.55308e-10
1.43726e-09
7.69498e-07
-8.1161e-10
1.36195e-09
7.57211e-07
-9.91115e-10
1.21233e-09
7.32523e-07
-9.53656e-10
9.91116e-10
6.94812e-07
7.07817e-10
6.41869e-07
-7.34559e-10
1.16796e-09
5.82278e-10
6.84761e-07
-8.82604e-10
1.21234e-09
8.11612e-10
7.32523e-07
9.91192e-10
9.9119e-10
7.66898e-07
5.54946e-10
1.111e-09
7.89644e-07
1.34684e-15
1.17094e-09
8.01031e-07
-5.54943e-10
1.17094e-09
8.01031e-07
-9.9119e-10
1.111e-09
7.89644e-07
-1.21233e-09
9.91189e-10
7.66898e-07
-1.16796e-09
8.1161e-10
7.32523e-07
5.82277e-10
6.84761e-07
-8.82603e-10
1.31747e-09
3.28504e-10
7.12596e-07
-9.97906e-10
1.36195e-09
4.5531e-10
7.57211e-07
1.111e-09
5.54945e-10
7.89644e-07
6.21276e-10
6.21276e-10
8.11249e-07
1.20408e-15
6.54371e-10
8.22097e-07
-6.21273e-10
6.5437e-10
8.22097e-07
-1.111e-09
6.21275e-10
8.11249e-07
-1.36195e-09
5.54944e-10
7.89644e-07
-1.31747e-09
4.55308e-10
7.57211e-07
3.28502e-10
7.12596e-07
-9.97906e-10
1.39271e-09
5.37558e-16
7.26351e-07
-1.05401e-09
1.43726e-09
1.39321e-15
7.69498e-07
1.17094e-09
1.27314e-15
8.01031e-07
6.5437e-10
1.20999e-15
8.22097e-07
8.4911e-16
1.18022e-15
8.32685e-07
-6.54368e-10
9.26087e-16
8.32685e-07
-1.17094e-09
6.15658e-16
8.22097e-07
-1.43726e-09
3.67028e-16
8.01031e-07
-1.39271e-09
1.09697e-18
7.69498e-07
-5.75158e-17
7.26351e-07
-1.05401e-09
1.39271e-09
-3.28502e-10
7.26351e-07
-1.05401e-09
1.43726e-09
-4.55307e-10
7.69498e-07
1.17094e-09
-5.54943e-10
8.01031e-07
6.5437e-10
-6.21273e-10
8.22097e-07
6.52725e-16
-6.54368e-10
8.32685e-07
-6.54368e-10
-6.54369e-10
8.32685e-07
-1.17094e-09
-6.21274e-10
8.22097e-07
-1.43726e-09
-5.54943e-10
8.01031e-07
-1.3927e-09
-4.55308e-10
7.69498e-07
-3.28502e-10
7.26351e-07
-1.054e-09
1.31747e-09
-5.82276e-10
7.12596e-07
-9.97906e-10
1.36195e-09
-8.11609e-10
7.57211e-07
1.111e-09
-9.91189e-10
7.89644e-07
6.21275e-10
-1.111e-09
8.11249e-07
4.65848e-16
-1.17094e-09
8.22097e-07
-6.21274e-10
-1.17094e-09
8.22097e-07
-1.111e-09
-1.111e-09
8.11249e-07
-1.36195e-09
-9.91188e-10
7.89644e-07
-1.31747e-09
-8.1161e-10
7.57211e-07
-5.82277e-10
7.12596e-07
-9.97905e-10
1.16796e-09
-7.07816e-10
6.84761e-07
-8.82604e-10
1.21234e-09
-9.91116e-10
7.32523e-07
9.91191e-10
-1.21233e-09
7.66898e-07
5.54945e-10
-1.36194e-09
7.89644e-07
6.95663e-16
-1.43726e-09
8.01031e-07
-5.54943e-10
-1.43726e-09
8.01031e-07
-9.91189e-10
-1.36194e-09
7.89644e-07
-1.21233e-09
-1.21233e-09
7.66898e-07
-1.16795e-09
-9.91116e-10
7.32523e-07
-7.07817e-10
6.84761e-07
-8.82601e-10
9.53657e-10
-6.70312e-10
6.41869e-07
-7.34559e-10
9.91116e-10
-9.53658e-10
6.94812e-07
8.1161e-10
-1.16795e-09
7.32523e-07
4.55309e-10
-1.31746e-09
7.57211e-07
8.85223e-16
-1.3927e-09
7.69498e-07
-4.55307e-10
-1.3927e-09
7.69498e-07
-8.11608e-10
-1.31746e-09
7.57211e-07
-9.91113e-10
-1.16795e-09
7.32523e-07
-9.53655e-10
-9.53658e-10
6.94812e-07
-6.70312e-10
6.41869e-07
-7.34558e-10
6.7031e-10
5.82233e-07
-5.1529e-10
-5.15289e-10
7.07815e-10
6.41869e-07
-7.3456e-10
5.82276e-10
6.84761e-07
-8.82602e-10
3.28502e-10
7.12596e-07
-9.97905e-10
7.65374e-16
7.26351e-07
-1.05401e-09
-3.285e-10
7.26351e-07
-1.05401e-09
-5.82274e-10
7.12596e-07
-9.97904e-10
-7.07813e-10
6.84761e-07
-8.82602e-10
-6.7031e-10
6.41869e-07
-7.34559e-10
5.82233e-07
-5.15289e-10
-5.1529e-10
1.81429e-10
1.81428e-10
5.82124e-07
-1.27116e-10
-1.27116e-10
2.02916e-10
2.78534e-10
6.41769e-07
-1.99634e-10
1.71759e-10
3.54029e-10
6.84687e-07
-2.48063e-10
9.85694e-11
4.0903e-10
7.12548e-07
-2.88416e-10
5.02084e-16
4.36903e-10
7.26321e-07
-3.07675e-10
-9.85684e-11
4.36903e-10
7.26321e-07
-3.07675e-10
-1.71757e-10
4.0903e-10
7.12548e-07
-2.88416e-10
-2.02914e-10
3.54029e-10
6.84687e-07
-2.48064e-10
-1.81427e-10
2.78535e-10
6.41769e-07
-1.99634e-10
1.81427e-10
5.82125e-07
-1.27115e-10
-1.27115e-10
2.78535e-10
2.02915e-10
6.41769e-07
-1.99634e-10
3.02796e-10
3.02795e-10
6.94764e-07
2.54508e-10
3.84104e-10
7.32541e-07
1.44909e-10
4.41386e-10
7.57288e-07
1.05467e-16
4.70707e-10
7.69609e-07
-1.44908e-10
4.70707e-10
7.69609e-07
-2.54507e-10
4.41385e-10
7.57288e-07
-3.02796e-10
3.84105e-10
7.32541e-07
-2.78534e-10
3.02797e-10
6.94764e-07
2.02914e-10
6.41769e-07
-1.99633e-10
3.54029e-10
1.71758e-10
6.84687e-07
-2.48063e-10
3.84104e-10
2.54507e-10
7.32541e-07
3.22439e-10
3.22439e-10
7.67021e-07
1.8319e-10
3.69666e-10
7.89855e-07
-2.88555e-16
3.93796e-10
8.01291e-07
-1.8319e-10
3.93796e-10
8.01291e-07
-3.22439e-10
3.69667e-10
7.89855e-07
-3.84105e-10
3.2244e-10
7.67021e-07
-3.54029e-10
2.54508e-10
7.32541e-07
1.71757e-10
6.84687e-07
-2.48064e-10
4.09029e-10
9.85694e-11
7.12548e-07
-2.88415e-10
4.41385e-10
1.44908e-10
7.57288e-07
3.69665e-10
1.8319e-10
7.89855e-07
2.0977e-10
2.0977e-10
8.11569e-07
-2.44224e-16
2.23342e-10
8.22477e-07
-2.0977e-10
2.23342e-10
8.22477e-07
-3.69666e-10
2.09771e-10
8.11569e-07
-4.41385e-10
1.83191e-10
7.89855e-07
-4.09029e-10
1.44909e-10
7.57288e-07
9.8568e-11