/*--------------------------------*- C++ -*----------------------------------*\
| =========                 |                                                 |
| \\      /  F ield         | OpenFOAM: The Open Source CFD Toolbox           |
|  \\    /   O peration     | Version:  2412                                  |
|   \\  /    A nd           | Website:  www.openfoam.com                      |
|    \\/     M anipulation  |                                                 |
\*---------------------------------------------------------------------------*/
FoamFile
{
    version     2.0;
    format      ascii;
    arch        "LSB;label=32;scalar=64";
    class       volVectorField;
    location    "4";
    object      U;
}
// * * * * * * * * * * * * * * * * * * * * * * * * * * * * * * * * * * * * * //

dimensions      [0 1 -1 0 0 0 0];

internalField   nonuniform List<vector> 
15000
(
(0.00118152 0.00118152 0.0105311)
(0.000871305 0.00110418 0.0105111)
(0.000592831 0.00107874 0.0104805)
(0.000347677 0.00105333 0.0104541)
(0.000114093 0.00104164 0.0104399)
(-0.000114093 0.00104164 0.0104399)
(-0.000347677 0.00105333 0.0104541)
(-0.000592831 0.00107874 0.0104805)
(-0.000871305 0.00110418 0.0105111)
(-0.00118152 0.00118152 0.0105311)
(0.00110418 0.000871305 0.0105111)
(0.00082028 0.00082028 0.0104613)
(0.000560522 0.000784261 0.010412)
(0.000326463 0.00075871 0.0103764)
(0.000107014 0.000746328 0.0103583)
(-0.000107014 0.000746328 0.0103583)
(-0.000326463 0.00075871 0.0103764)
(-0.000560522 0.000784261 0.010412)
(-0.00082028 0.00082028 0.0104613)
(-0.00110418 0.000871305 0.0105111)
(0.00107874 0.00059283 0.0104805)
(0.000784261 0.000560522 0.010412)
(0.000531627 0.000531627 0.0103544)
(0.000307729 0.000510732 0.0103154)
(0.000100634 0.000500243 0.0102961)
(-0.000100634 0.000500243 0.0102961)
(-0.000307729 0.000510732 0.0103154)
(-0.000531627 0.000531627 0.0103544)
(-0.000784261 0.000560522 0.010412)
(-0.00107874 0.000592831 0.0104805)
(0.00105333 0.000347677 0.0104541)
(0.00075871 0.000326463 0.0103764)
(0.000510732 0.000307729 0.0103154)
(0.000294169 0.000294169 0.0102754)
(9.59934e-05 0.000287296 0.0102559)
(-9.59934e-05 0.000287296 0.0102559)
(-0.000294169 0.000294169 0.0102754)
(-0.000510732 0.000307729 0.0103154)
(-0.00075871 0.000326463 0.0103764)
(-0.00105333 0.000347677 0.0104541)
(0.00104164 0.000114093 0.0104399)
(0.000746328 0.000107014 0.0103583)
(0.000500243 0.000100634 0.0102961)
(0.000287296 9.59934e-05 0.0102559)
(9.36335e-05 9.36335e-05 0.0102363)
(-9.36335e-05 9.36335e-05 0.0102363)
(-0.000287296 9.59934e-05 0.0102559)
(-0.000500243 0.000100634 0.0102961)
(-0.000746328 0.000107014 0.0103583)
(-0.00104164 0.000114093 0.0104399)
(0.00104164 -0.000114093 0.0104399)
(0.000746328 -0.000107014 0.0103583)
(0.000500243 -0.000100634 0.0102961)
(0.000287296 -9.59934e-05 0.0102559)
(9.36335e-05 -9.36335e-05 0.0102363)
(-9.36335e-05 -9.36335e-05 0.0102363)
(-0.000287296 -9.59934e-05 0.0102559)
(-0.000500243 -0.000100634 0.0102961)
(-0.000746328 -0.000107014 0.0103583)
(-0.00104164 -0.000114093 0.0104399)
(0.00105333 -0.000347677 0.0104541)
(0.00075871 -0.000326463 0.0103764)
(0.000510732 -0.000307729 0.0103154)
(0.000294169 -0.000294169 0.0102754)
(9.59934e-05 -0.000287296 0.0102559)
(-9.59934e-05 -0.000287296 0.0102559)
(-0.000294169 -0.000294169 0.0102754)
(-0.000510732 -0.000307729 0.0103154)
(-0.00075871 -0.000326463 0.0103764)
(-0.00105333 -0.000347677 0.0104541)
(0.00107874 -0.000592831 0.0104805)
(0.000784261 -0.000560522 0.010412)
(0.000531627 -0.000531627 0.0103544)
(0.000307729 -0.000510732 0.0103154)
(0.000100634 -0.000500243 0.0102961)
(-0.000100634 -0.000500243 0.0102961)
(-0.000307729 -0.000510732 0.0103154)
(-0.000531627 -0.000531627 0.0103544)
(-0.00078426 -0.000560522 0.010412)
(-0.00107874 -0.00059283 0.0104805)
(0.00110418 -0.000871305 0.0105111)
(0.00082028 -0.00082028 0.0104613)
(0.000560522 -0.000784261 0.010412)
(0.000326463 -0.00075871 0.0103764)
(0.000107014 -0.000746328 0.0103583)
(-0.000107014 -0.000746328 0.0103583)
(-0.000326463 -0.00075871 0.0103764)
(-0.000560522 -0.000784261 0.010412)
(-0.00082028 -0.00082028 0.0104613)
(-0.00110418 -0.000871305 0.0105111)
(0.00118152 -0.00118152 0.0105311)
(0.000871305 -0.00110418 0.0105111)
(0.000592831 -0.00107874 0.0104805)
(0.000347677 -0.00105333 0.0104541)
(0.000114093 -0.00104164 0.0104399)
(-0.000114093 -0.00104164 0.0104399)
(-0.000347677 -0.00105333 0.0104541)
(-0.00059283 -0.00107874 0.0104805)
(-0.000871305 -0.00110418 0.0105111)
(-0.00118152 -0.00118152 0.0105311)
(0.000593327 0.000593327 0.0125054)
(0.000470182 0.000624674 0.0124399)
(0.000334985 0.000647961 0.0123338)
(0.000201343 0.000660293 0.0122423)
(6.68006e-05 0.000667206 0.0121925)
(-6.68007e-05 0.000667206 0.0121925)
(-0.000201343 0.000660293 0.0122423)
(-0.000334985 0.000647961 0.0123338)
(-0.000470182 0.000624674 0.0124399)
(-0.000593327 0.000593327 0.0125054)
(0.000624674 0.000470182 0.0124399)
(0.000490876 0.000490876 0.0122647)
(0.000349767 0.000504341 0.0120891)
(0.000209548 0.000511646 0.011962)
(6.96648e-05 0.000515593 0.0118973)
(-6.96648e-05 0.000515593 0.0118973)
(-0.000209548 0.000511646 0.011962)
(-0.000349767 0.000504341 0.0120891)
(-0.000490876 0.000490876 0.0122647)
(-0.000624674 0.000470182 0.0124399)
(0.000647961 0.000334985 0.0123338)
(0.000504341 0.000349767 0.0120891)
(0.00035894 0.00035894 0.0118805)
(0.000214828 0.000364015 0.0117396)
(7.14808e-05 0.000366587 0.0116698)
(-7.14808e-05 0.000366587 0.0116698)
(-0.000214828 0.000364015 0.0117396)
(-0.00035894 0.00035894 0.0118805)
(-0.000504341 0.000349767 0.0120891)
(-0.000647961 0.000334985 0.0123338)
(0.000660293 0.000201343 0.0122423)
(0.000511646 0.000209548 0.011962)
(0.000364015 0.000214828 0.0117396)
(0.000217864 0.000217864 0.0115939)
(7.25295e-05 0.000219378 0.0115228)
(-7.25294e-05 0.000219378 0.0115228)
(-0.000217864 0.000217864 0.0115939)
(-0.000364015 0.000214828 0.0117396)
(-0.000511646 0.000209548 0.011962)
(-0.000660293 0.000201343 0.0122423)
(0.000667206 6.68006e-05 0.0121925)
(0.000515593 6.96648e-05 0.0118973)
(0.000366587 7.14808e-05 0.0116698)
(0.000219378 7.25294e-05 0.0115228)
(7.30463e-05 7.30463e-05 0.0114515)
(-7.30463e-05 7.30463e-05 0.0114515)
(-0.000219378 7.25295e-05 0.0115228)
(-0.000366587 7.14808e-05 0.0116698)
(-0.000515593 6.96648e-05 0.0118973)
(-0.000667206 6.68006e-05 0.0121925)
(0.000667206 -6.68007e-05 0.0121925)
(0.000515593 -6.96648e-05 0.0118973)
(0.000366587 -7.14808e-05 0.0116698)
(0.000219378 -7.25294e-05 0.0115228)
(7.30463e-05 -7.30463e-05 0.0114515)
(-7.30463e-05 -7.30463e-05 0.0114515)
(-0.000219378 -7.25294e-05 0.0115228)
(-0.000366587 -7.14808e-05 0.0116698)
(-0.000515593 -6.96648e-05 0.0118973)
(-0.000667206 -6.68007e-05 0.0121925)
(0.000660293 -0.000201343 0.0122423)
(0.000511646 -0.000209548 0.011962)
(0.000364015 -0.000214828 0.0117396)
(0.000217864 -0.000217864 0.0115939)
(7.25295e-05 -0.000219378 0.0115228)
(-7.25294e-05 -0.000219378 0.0115228)
(-0.000217864 -0.000217864 0.0115939)
(-0.000364015 -0.000214828 0.0117396)
(-0.000511646 -0.000209548 0.011962)
(-0.000660293 -0.000201343 0.0122423)
(0.000647961 -0.000334985 0.0123338)
(0.000504341 -0.000349767 0.0120891)
(0.00035894 -0.00035894 0.0118805)
(0.000214828 -0.000364015 0.0117396)
(7.14808e-05 -0.000366587 0.0116698)
(-7.14808e-05 -0.000366587 0.0116698)
(-0.000214828 -0.000364015 0.0117396)
(-0.00035894 -0.00035894 0.0118805)
(-0.000504341 -0.000349767 0.0120891)
(-0.000647961 -0.000334985 0.0123338)
(0.000624674 -0.000470182 0.0124399)
(0.000490876 -0.000490876 0.0122647)
(0.000349767 -0.000504341 0.0120891)
(0.000209548 -0.000511646 0.011962)
(6.96648e-05 -0.000515593 0.0118973)
(-6.96648e-05 -0.000515593 0.0118973)
(-0.000209548 -0.000511646 0.011962)
(-0.000349767 -0.000504341 0.0120891)
(-0.000490876 -0.000490876 0.0122647)
(-0.000624674 -0.000470182 0.0124399)
(0.000593327 -0.000593327 0.0125054)
(0.000470182 -0.000624674 0.0124399)
(0.000334985 -0.000647961 0.0123338)
(0.000201343 -0.000660293 0.0122423)
(6.68006e-05 -0.000667206 0.0121925)
(-6.68007e-05 -0.000667206 0.0121925)
(-0.000201343 -0.000660293 0.0122423)
(-0.000334985 -0.000647961 0.0123338)
(-0.000470182 -0.000624674 0.0124399)
(-0.000593327 -0.000593327 0.0125054)
(0.000352245 0.000352245 0.0123605)
(0.000296691 0.000393802 0.0124686)
(0.000224013 0.000425052 0.0124731)
(0.000139364 0.00044496 0.0124477)
(4.70587e-05 0.000455284 0.012429)
(-4.70587e-05 0.000455284 0.012429)
(-0.000139364 0.00044496 0.0124477)
(-0.000224013 0.000425052 0.0124731)
(-0.000296691 0.000393802 0.0124686)
(-0.000352245 0.000352245 0.0123605)
(0.000393802 0.000296691 0.0124686)
(0.000333962 0.000333962 0.0124545)
(0.000252141 0.000360062 0.0123812)
(0.000156635 0.000376161 0.0123161)
(5.29871e-05 0.000384214 0.0122808)
(-5.29871e-05 0.000384214 0.0122808)
(-0.000156635 0.000376161 0.0123161)
(-0.000252141 0.000360062 0.0123812)
(-0.000333962 0.000333962 0.0124545)
(-0.000393802 0.000296691 0.0124686)
(0.000425052 0.000224013 0.0124731)
(0.000360062 0.000252141 0.0123812)
(0.000271594 0.000271594 0.01227)
(0.00016845 0.000283352 0.0121883)
(5.69931e-05 0.000289047 0.0121468)
(-5.69931e-05 0.000289047 0.0121468)
(-0.00016845 0.000283352 0.0121883)
(-0.000271594 0.000271594 0.01227)
(-0.000360062 0.000252141 0.0123812)
(-0.000425052 0.000224013 0.0124731)
(0.00044496 0.000139364 0.0124477)
(0.000376161 0.000156635 0.0123161)
(0.000283352 0.00016845 0.0121883)
(0.000175514 0.000175514 0.0121002)
(5.93655e-05 0.000178871 0.0120564)
(-5.93655e-05 0.000178871 0.0120564)
(-0.000175514 0.000175514 0.0121002)
(-0.000283352 0.00016845 0.0121883)
(-0.000376161 0.000156635 0.0123161)
(-0.00044496 0.000139364 0.0124477)
(0.000455284 4.70587e-05 0.012429)
(0.000384214 5.29871e-05 0.0122808)
(0.000289047 5.69931e-05 0.0121468)
(0.000178871 5.93655e-05 0.0120564)
(6.04801e-05 6.04801e-05 0.0120118)
(-6.04801e-05 6.04801e-05 0.0120118)
(-0.000178871 5.93655e-05 0.0120564)
(-0.000289047 5.69931e-05 0.0121468)
(-0.000384214 5.29871e-05 0.0122808)
(-0.000455284 4.70587e-05 0.012429)
(0.000455284 -4.70587e-05 0.012429)
(0.000384214 -5.29871e-05 0.0122808)
(0.000289047 -5.69931e-05 0.0121468)
(0.000178871 -5.93655e-05 0.0120564)
(6.04801e-05 -6.04801e-05 0.0120118)
(-6.04801e-05 -6.04801e-05 0.0120118)
(-0.000178871 -5.93655e-05 0.0120564)
(-0.000289047 -5.69931e-05 0.0121468)
(-0.000384214 -5.29871e-05 0.0122808)
(-0.000455284 -4.70587e-05 0.012429)
(0.00044496 -0.000139364 0.0124477)
(0.000376161 -0.000156635 0.0123161)
(0.000283352 -0.00016845 0.0121883)
(0.000175514 -0.000175514 0.0121002)
(5.93655e-05 -0.000178871 0.0120564)
(-5.93655e-05 -0.000178871 0.0120564)
(-0.000175514 -0.000175514 0.0121002)
(-0.000283352 -0.00016845 0.0121883)
(-0.000376161 -0.000156635 0.0123161)
(-0.00044496 -0.000139364 0.0124477)
(0.000425052 -0.000224013 0.0124731)
(0.000360062 -0.000252141 0.0123812)
(0.000271594 -0.000271594 0.01227)
(0.00016845 -0.000283352 0.0121883)
(5.69931e-05 -0.000289047 0.0121468)
(-5.69931e-05 -0.000289047 0.0121468)
(-0.00016845 -0.000283352 0.0121883)
(-0.000271594 -0.000271594 0.01227)
(-0.000360062 -0.00025214 0.0123812)
(-0.000425052 -0.000224013 0.0124731)
(0.000393802 -0.000296691 0.0124686)
(0.000333962 -0.000333962 0.0124545)
(0.000252141 -0.000360062 0.0123812)
(0.000156635 -0.000376161 0.0123161)
(5.29871e-05 -0.000384214 0.0122808)
(-5.29871e-05 -0.000384214 0.0122808)
(-0.000156635 -0.000376161 0.0123161)
(-0.00025214 -0.000360062 0.0123812)
(-0.000333962 -0.000333962 0.0124545)
(-0.000393802 -0.000296691 0.0124686)
(0.000352245 -0.000352245 0.0123605)
(0.000296691 -0.000393802 0.0124686)
(0.000224013 -0.000425052 0.0124731)
(0.000139364 -0.00044496 0.0124477)
(4.70587e-05 -0.000455284 0.012429)
(-4.70587e-05 -0.000455284 0.012429)
(-0.000139364 -0.00044496 0.0124477)
(-0.000224013 -0.000425052 0.0124731)
(-0.000296691 -0.000393802 0.0124686)
(-0.000352245 -0.000352245 0.0123605)
(0.000120709 0.000120709 0.0124728)
(0.000109603 0.000150753 0.0126411)
(8.84858e-05 0.000173017 0.012692)
(5.70628e-05 0.000188635 0.0126976)
(1.96126e-05 0.000196711 0.0126941)
(-1.96126e-05 0.000196711 0.0126941)
(-5.70628e-05 0.000188635 0.0126976)
(-8.84858e-05 0.000173017 0.012692)
(-0.000109603 0.000150753 0.0126411)
(-0.000120709 0.000120709 0.0124728)
(0.000150753 0.000109603 0.0126411)
(0.000138289 0.000138289 0.0127001)
(0.000110787 0.000159818 0.0126802)
(7.13371e-05 0.000174091 0.0126493)
(2.45469e-05 0.000181325 0.0126305)
(-2.45469e-05 0.000181325 0.0126305)
(-7.13371e-05 0.000174091 0.0126493)
(-0.000110787 0.000159818 0.0126802)
(-0.000138289 0.000138289 0.0127001)
(-0.000150753 0.000109603 0.0126411)
(0.000173017 8.84858e-05 0.012692)
(0.000159818 0.000110787 0.0126802)
(0.000127854 0.000127854 0.012625)
(8.21536e-05 0.000139008 0.0125782)
(2.82644e-05 0.000144577 0.0125533)
(-2.82644e-05 0.000144577 0.0125533)
(-8.21536e-05 0.000139008 0.0125782)
(-0.000127854 0.000127854 0.012625)
(-0.000159818 0.000110787 0.0126802)
(-0.000173017 8.84858e-05 0.012692)
(0.000188635 5.70627e-05 0.0126976)
(0.000174091 7.13371e-05 0.0126493)
(0.000139008 8.21536e-05 0.0125782)
(8.91783e-05 8.91783e-05 0.0125246)
(3.06678e-05 9.26553e-05 0.0124971)
(-3.06678e-05 9.26553e-05 0.0124971)
(-8.91783e-05 8.91783e-05 0.0125246)
(-0.000139008 8.21536e-05 0.0125782)
(-0.000174091 7.13371e-05 0.0126493)
(-0.000188635 5.70627e-05 0.0126976)
(0.000196711 1.96126e-05 0.0126941)
(0.000181325 2.45469e-05 0.0126305)
(0.000144577 2.82644e-05 0.0125533)
(9.26553e-05 3.06678e-05 0.0124971)
(3.18517e-05 3.18517e-05 0.0124685)
(-3.18517e-05 3.18517e-05 0.0124685)
(-9.26553e-05 3.06678e-05 0.0124971)
(-0.000144577 2.82644e-05 0.0125533)
(-0.000181325 2.45469e-05 0.0126305)
(-0.000196711 1.96126e-05 0.0126941)
(0.000196711 -1.96126e-05 0.0126941)
(0.000181325 -2.45469e-05 0.0126305)
(0.000144577 -2.82644e-05 0.0125533)
(9.26553e-05 -3.06678e-05 0.0124971)
(3.18517e-05 -3.18517e-05 0.0124685)
(-3.18517e-05 -3.18517e-05 0.0124685)
(-9.26553e-05 -3.06678e-05 0.0124971)
(-0.000144577 -2.82644e-05 0.0125533)
(-0.000181325 -2.45469e-05 0.0126305)
(-0.000196711 -1.96126e-05 0.0126941)
(0.000188635 -5.70628e-05 0.0126976)
(0.000174091 -7.13371e-05 0.0126493)
(0.000139008 -8.21536e-05 0.0125782)
(8.91783e-05 -8.91783e-05 0.0125246)
(3.06678e-05 -9.26553e-05 0.0124971)
(-3.06678e-05 -9.26553e-05 0.0124971)
(-8.91783e-05 -8.91783e-05 0.0125246)
(-0.000139008 -8.21536e-05 0.0125782)
(-0.000174091 -7.13371e-05 0.0126493)
(-0.000188635 -5.70627e-05 0.0126976)
(0.000173017 -8.84858e-05 0.012692)
(0.000159818 -0.000110787 0.0126802)
(0.000127854 -0.000127854 0.012625)
(8.21536e-05 -0.000139008 0.0125782)
(2.82644e-05 -0.000144577 0.0125533)
(-2.82644e-05 -0.000144577 0.0125533)
(-8.21536e-05 -0.000139008 0.0125782)
(-0.000127854 -0.000127854 0.012625)
(-0.000159818 -0.000110787 0.0126802)
(-0.000173017 -8.84857e-05 0.012692)
(0.000150753 -0.000109603 0.0126411)
(0.000138289 -0.000138289 0.0127001)
(0.000110787 -0.000159818 0.0126802)
(7.13371e-05 -0.000174091 0.0126493)
(2.45469e-05 -0.000181325 0.0126305)
(-2.45469e-05 -0.000181325 0.0126305)
(-7.13371e-05 -0.000174091 0.0126493)
(-0.000110787 -0.000159818 0.0126802)
(-0.000138289 -0.000138289 0.0127001)
(-0.000150753 -0.000109603 0.0126411)
(0.000120709 -0.000120709 0.0124728)
(0.000109603 -0.000150753 0.0126411)
(8.84858e-05 -0.000173017 0.012692)
(5.70627e-05 -0.000188635 0.0126976)
(1.96126e-05 -0.000196711 0.0126941)
(-1.96126e-05 -0.000196711 0.0126941)
(-5.70627e-05 -0.000188635 0.0126976)
(-8.84857e-05 -0.000173017 0.012692)
(-0.000109603 -0.000150753 0.0126411)
(-0.000120709 -0.000120709 0.0124728)
(4.25993e-05 4.25993e-05 0.0124272)
(3.98618e-05 5.4965e-05 0.0126294)
(3.33819e-05 6.45716e-05 0.01271)
(2.19064e-05 7.16432e-05 0.012737)
(7.59634e-06 7.53267e-05 0.0127445)
(-7.59634e-06 7.53267e-05 0.0127445)
(-2.19064e-05 7.16432e-05 0.012737)
(-3.33819e-05 6.45716e-05 0.01271)
(-3.98619e-05 5.49651e-05 0.0126294)
(-4.25993e-05 4.25993e-05 0.0124272)
(5.4965e-05 3.98619e-05 0.0126294)
(5.2855e-05 5.28551e-05 0.0127356)
(4.38097e-05 6.29704e-05 0.0127541)
(2.87548e-05 6.99425e-05 0.0127498)
(9.98411e-06 7.35352e-05 0.0127445)
(-9.98409e-06 7.35352e-05 0.0127445)
(-2.87548e-05 6.99425e-05 0.0127498)
(-4.38097e-05 6.29704e-05 0.0127541)
(-5.28551e-05 5.28551e-05 0.0127356)
(-5.4965e-05 3.98619e-05 0.0126294)
(6.45716e-05 3.33819e-05 0.01271)
(6.29704e-05 4.38098e-05 0.0127541)
(5.21783e-05 5.21783e-05 0.0127429)
(3.42301e-05 5.78902e-05 0.0127254)
(1.18926e-05 6.08111e-05 0.0127151)
(-1.18926e-05 6.08111e-05 0.0127151)
(-3.42301e-05 5.78902e-05 0.0127254)
(-5.21783e-05 5.21783e-05 0.0127429)
(-6.29704e-05 4.38098e-05 0.0127541)
(-6.45716e-05 3.33819e-05 0.01271)
(7.16432e-05 2.19064e-05 0.012737)
(6.99425e-05 2.87548e-05 0.0127498)
(5.78902e-05 3.42302e-05 0.0127254)
(3.79543e-05 3.79543e-05 0.0127026)
(1.31886e-05 3.98494e-05 0.0126902)
(-1.31886e-05 3.98494e-05 0.0126902)
(-3.79543e-05 3.79543e-05 0.0127026)
(-5.78902e-05 3.42301e-05 0.0127254)
(-6.99425e-05 2.87548e-05 0.0127498)
(-7.16432e-05 2.19064e-05 0.012737)
(7.53267e-05 7.59634e-06 0.0127445)
(7.35352e-05 9.98411e-06 0.0127445)
(6.08111e-05 1.18926e-05 0.0127151)
(3.98494e-05 1.31886e-05 0.0126902)
(1.3846e-05 1.3846e-05 0.0126769)
(-1.3846e-05 1.3846e-05 0.0126769)
(-3.98494e-05 1.31886e-05 0.0126902)
(-6.08111e-05 1.18926e-05 0.0127151)
(-7.35352e-05 9.98409e-06 0.0127445)
(-7.53267e-05 7.59634e-06 0.0127445)
(7.53267e-05 -7.59633e-06 0.0127445)
(7.35352e-05 -9.98408e-06 0.0127445)
(6.08111e-05 -1.18926e-05 0.0127151)
(3.98494e-05 -1.31886e-05 0.0126902)
(1.3846e-05 -1.3846e-05 0.0126769)
(-1.3846e-05 -1.3846e-05 0.0126769)
(-3.98494e-05 -1.31886e-05 0.0126902)
(-6.08111e-05 -1.18926e-05 0.0127151)
(-7.35352e-05 -9.9841e-06 0.0127445)
(-7.53267e-05 -7.59634e-06 0.0127445)
(7.16432e-05 -2.19064e-05 0.012737)
(6.99425e-05 -2.87548e-05 0.0127498)
(5.78902e-05 -3.42301e-05 0.0127254)
(3.79543e-05 -3.79543e-05 0.0127026)
(1.31886e-05 -3.98494e-05 0.0126902)
(-1.31886e-05 -3.98494e-05 0.0126902)
(-3.79543e-05 -3.79543e-05 0.0127026)
(-5.78902e-05 -3.42301e-05 0.0127254)
(-6.99425e-05 -2.87548e-05 0.0127498)
(-7.16432e-05 -2.19064e-05 0.012737)
(6.45716e-05 -3.33819e-05 0.01271)
(6.29704e-05 -4.38098e-05 0.0127541)
(5.21783e-05 -5.21783e-05 0.0127429)
(3.42301e-05 -5.78902e-05 0.0127254)
(1.18926e-05 -6.08111e-05 0.0127151)
(-1.18926e-05 -6.08111e-05 0.0127151)
(-3.42301e-05 -5.78902e-05 0.0127254)
(-5.21783e-05 -5.21783e-05 0.0127429)
(-6.29704e-05 -4.38097e-05 0.0127541)
(-6.45716e-05 -3.33819e-05 0.01271)
(5.4965e-05 -3.98619e-05 0.0126294)
(5.28551e-05 -5.28551e-05 0.0127356)
(4.38098e-05 -6.29704e-05 0.0127541)
(2.87548e-05 -6.99425e-05 0.0127498)
(9.98409e-06 -7.35352e-05 0.0127445)
(-9.98411e-06 -7.35352e-05 0.0127445)
(-2.87548e-05 -6.99425e-05 0.0127498)
(-4.38097e-05 -6.29704e-05 0.0127541)
(-5.2855e-05 -5.2855e-05 0.0127356)
(-5.4965e-05 -3.98618e-05 0.0126294)
(4.25993e-05 -4.25993e-05 0.0124272)
(3.98619e-05 -5.4965e-05 0.0126294)
(3.33819e-05 -6.45716e-05 0.01271)
(2.19064e-05 -7.16432e-05 0.012737)
(7.59633e-06 -7.53267e-05 0.0127445)
(-7.59634e-06 -7.53267e-05 0.0127445)
(-2.19064e-05 -7.16432e-05 0.012737)
(-3.33819e-05 -6.45716e-05 0.01271)
(-3.98618e-05 -5.4965e-05 0.0126294)
(-4.25993e-05 -4.25993e-05 0.0124272)
(1.3582e-05 1.3582e-05 0.0123984)
(1.34164e-05 1.86664e-05 0.0126093)
(1.18132e-05 2.26873e-05 0.0126992)
(7.94152e-06 2.57292e-05 0.0127336)
(2.78842e-06 2.73175e-05 0.0127451)
(-2.78842e-06 2.73175e-05 0.0127451)
(-7.94151e-06 2.57292e-05 0.0127336)
(-1.18132e-05 2.26872e-05 0.0126992)
(-1.34164e-05 1.86664e-05 0.0126093)
(-1.3582e-05 1.3582e-05 0.0123984)
(1.86664e-05 1.34164e-05 0.0126093)
(1.90099e-05 1.90099e-05 0.0127316)
(1.63946e-05 2.34692e-05 0.012765)
(1.10006e-05 2.66203e-05 0.0127716)
(3.85946e-06 2.82554e-05 0.0127721)
(-3.85947e-06 2.82554e-05 0.0127721)
(-1.10006e-05 2.66203e-05 0.0127716)
(-1.63946e-05 2.34692e-05 0.012765)
(-1.90098e-05 1.90098e-05 0.0127316)
(-1.86664e-05 1.34164e-05 0.0126093)
(2.26873e-05 1.18132e-05 0.0126992)
(2.34692e-05 1.63946e-05 0.012765)
(2.01791e-05 2.0179e-05 0.0127725)
(1.35198e-05 2.28239e-05 0.0127685)
(4.74302e-06 2.41896e-05 0.0127651)
(-4.74302e-06 2.41896e-05 0.0127651)
(-1.35198e-05 2.28239e-05 0.0127685)
(-2.0179e-05 2.01791e-05 0.0127725)
(-2.34692e-05 1.63946e-05 0.012765)
(-2.26872e-05 1.18132e-05 0.0126992)
(2.57292e-05 7.94152e-06 0.0127336)
(2.66203e-05 1.10006e-05 0.0127716)
(2.28239e-05 1.35198e-05 0.0127685)
(1.52705e-05 1.52705e-05 0.0127606)
(5.356e-06 1.61706e-05 0.0127559)
(-5.35599e-06 1.61706e-05 0.0127559)
(-1.52705e-05 1.52705e-05 0.0127606)
(-2.28239e-05 1.35198e-05 0.0127685)
(-2.66203e-05 1.10006e-05 0.0127716)
(-2.57292e-05 7.94151e-06 0.0127336)
(2.73175e-05 2.78842e-06 0.0127451)
(2.82554e-05 3.85946e-06 0.0127721)
(2.41896e-05 4.74301e-06 0.0127651)
(1.61706e-05 5.35599e-06 0.0127559)
(5.67037e-06 5.67037e-06 0.0127506)
(-5.67036e-06 5.67037e-06 0.0127506)
(-1.61706e-05 5.356e-06 0.0127559)
(-2.41896e-05 4.74302e-06 0.0127651)
(-2.82554e-05 3.85946e-06 0.0127721)
(-2.73175e-05 2.78841e-06 0.0127451)
(2.73175e-05 -2.78841e-06 0.0127451)
(2.82554e-05 -3.85946e-06 0.0127721)
(2.41896e-05 -4.74301e-06 0.0127651)
(1.61706e-05 -5.35599e-06 0.0127559)
(5.67037e-06 -5.67036e-06 0.0127506)
(-5.67035e-06 -5.67035e-06 0.0127506)
(-1.61706e-05 -5.35599e-06 0.0127559)
(-2.41896e-05 -4.74301e-06 0.0127651)
(-2.82554e-05 -3.85946e-06 0.0127721)
(-2.73175e-05 -2.78841e-06 0.0127451)
(2.57292e-05 -7.94151e-06 0.0127336)
(2.66203e-05 -1.10006e-05 0.0127716)
(2.28239e-05 -1.35198e-05 0.0127685)
(1.52705e-05 -1.52705e-05 0.0127606)
(5.356e-06 -1.61705e-05 0.0127559)
(-5.35599e-06 -1.61706e-05 0.0127559)
(-1.52705e-05 -1.52705e-05 0.0127606)
(-2.28239e-05 -1.35198e-05 0.0127685)
(-2.66203e-05 -1.10006e-05 0.0127716)
(-2.57292e-05 -7.94149e-06 0.0127336)
(2.26873e-05 -1.18132e-05 0.0126992)
(2.34692e-05 -1.63946e-05 0.012765)
(2.01791e-05 -2.0179e-05 0.0127725)
(1.35198e-05 -2.28239e-05 0.0127685)
(4.74302e-06 -2.41896e-05 0.0127651)
(-4.74301e-06 -2.41896e-05 0.0127651)
(-1.35198e-05 -2.28239e-05 0.0127685)
(-2.0179e-05 -2.0179e-05 0.0127725)
(-2.34692e-05 -1.63946e-05 0.012765)
(-2.26872e-05 -1.18131e-05 0.0126992)
(1.86664e-05 -1.34164e-05 0.0126093)
(1.90099e-05 -1.90098e-05 0.0127316)
(1.63946e-05 -2.34692e-05 0.012765)
(1.10006e-05 -2.66203e-05 0.0127716)
(3.85945e-06 -2.82554e-05 0.0127721)
(-3.85946e-06 -2.82554e-05 0.0127721)
(-1.10006e-05 -2.66203e-05 0.0127716)
(-1.63946e-05 -2.34692e-05 0.012765)
(-1.90098e-05 -1.90098e-05 0.0127316)
(-1.86664e-05 -1.34164e-05 0.0126093)
(1.3582e-05 -1.3582e-05 0.0123984)
(1.34164e-05 -1.86664e-05 0.0126093)
(1.18132e-05 -2.26873e-05 0.0126992)
(7.94151e-06 -2.57292e-05 0.0127336)
(2.78841e-06 -2.73175e-05 0.0127451)
(-2.78841e-06 -2.73175e-05 0.0127451)
(-7.94151e-06 -2.57292e-05 0.0127336)
(-1.18132e-05 -2.26873e-05 0.0126992)
(-1.34164e-05 -1.86664e-05 0.0126093)
(-1.3582e-05 -1.3582e-05 0.0123984)
(3.6997e-06 3.6997e-06 0.0123891)
(3.9053e-06 5.57958e-06 0.0126023)
(3.64252e-06 7.09182e-06 0.0126951)
(2.51136e-06 8.28954e-06 0.012732)
(8.94363e-07 8.91407e-06 0.0127449)
(-8.94358e-07 8.91408e-06 0.0127449)
(-2.51136e-06 8.28955e-06 0.012732)
(-3.64252e-06 7.09183e-06 0.0126951)
(-3.9053e-06 5.57958e-06 0.0126023)
(-3.69971e-06 3.6997e-06 0.0123891)
(5.57958e-06 3.9053e-06 0.0126023)
(6.05567e-06 6.05568e-06 0.0127298)
(5.45775e-06 7.83779e-06 0.0127683)
(3.75052e-06 9.14271e-06 0.012779)
(1.33114e-06 9.82874e-06 0.0127815)
(-1.33113e-06 9.82874e-06 0.0127815)
(-3.7505e-06 9.14272e-06 0.012779)
(-5.45775e-06 7.83781e-06 0.0127683)
(-6.05569e-06 6.05569e-06 0.0127298)
(-5.57958e-06 3.90531e-06 0.0126023)
(7.09181e-06 3.64253e-06 0.0126951)
(7.83779e-06 5.45775e-06 0.0127683)
(7.02441e-06 7.02441e-06 0.0127828)
(4.81801e-06 8.15737e-06 0.0127839)
(1.70899e-06 8.75183e-06 0.0127832)
(-1.70897e-06 8.75183e-06 0.0127832)
(-4.81799e-06 8.15737e-06 0.0127839)
(-7.0244e-06 7.02441e-06 0.0127828)
(-7.8378e-06 5.45776e-06 0.0127683)
(-7.09182e-06 3.64253e-06 0.0126951)
(8.28953e-06 2.51136e-06 0.012732)
(9.14271e-06 3.75052e-06 0.012779)
(8.15737e-06 4.81801e-06 0.0127839)
(5.585e-06 5.585e-06 0.012782)
(1.98013e-06 5.98609e-06 0.0127803)
(-1.98012e-06 5.98609e-06 0.0127803)
(-5.58499e-06 5.585e-06 0.012782)
(-8.15735e-06 4.818e-06 0.0127839)
(-9.14271e-06 3.75052e-06 0.012779)
(-8.28954e-06 2.51136e-06 0.012732)
(8.91407e-06 8.94363e-07 0.0127449)
(9.82874e-06 1.33115e-06 0.0127815)
(8.75183e-06 1.70899e-06 0.0127832)
(5.98609e-06 1.98013e-06 0.0127803)
(2.1217e-06 2.1217e-06 0.0127783)
(-2.12169e-06 2.1217e-06 0.0127783)
(-5.98608e-06 1.98013e-06 0.0127803)
(-8.75182e-06 1.70898e-06 0.0127832)
(-9.82874e-06 1.33114e-06 0.0127815)
(-8.91407e-06 8.94361e-07 0.0127449)
(8.91407e-06 -8.94357e-07 0.0127449)
(9.82874e-06 -1.33113e-06 0.0127815)
(8.75182e-06 -1.70898e-06 0.0127832)
(5.98609e-06 -1.98012e-06 0.0127803)
(2.1217e-06 -2.12169e-06 0.0127783)
(-2.12169e-06 -2.12169e-06 0.0127783)
(-5.98608e-06 -1.98012e-06 0.0127803)
(-8.75182e-06 -1.70898e-06 0.0127832)
(-9.82873e-06 -1.33114e-06 0.0127815)
(-8.91407e-06 -8.94362e-07 0.0127449)
(8.28954e-06 -2.51136e-06 0.012732)
(9.14271e-06 -3.75051e-06 0.012779)
(8.15736e-06 -4.81799e-06 0.0127839)
(5.585e-06 -5.58499e-06 0.012782)
(1.98013e-06 -5.98608e-06 0.0127803)
(-1.98012e-06 -5.98608e-06 0.0127803)
(-5.58499e-06 -5.58499e-06 0.012782)
(-8.15735e-06 -4.81799e-06 0.0127839)
(-9.14271e-06 -3.75051e-06 0.012779)
(-8.28953e-06 -2.51136e-06 0.012732)
(7.09182e-06 -3.64252e-06 0.0126951)
(7.8378e-06 -5.45775e-06 0.0127683)
(7.02441e-06 -7.02439e-06 0.0127828)
(4.818e-06 -8.15736e-06 0.0127839)
(1.70898e-06 -8.75182e-06 0.0127832)
(-1.70897e-06 -8.75181e-06 0.0127832)
(-4.81799e-06 -8.15735e-06 0.0127839)
(-7.0244e-06 -7.0244e-06 0.0127828)
(-7.8378e-06 -5.45775e-06 0.0127683)
(-7.09181e-06 -3.64252e-06 0.0126951)
(5.57959e-06 -3.90531e-06 0.0126023)
(6.05569e-06 -6.05569e-06 0.0127298)
(5.45775e-06 -7.8378e-06 0.0127683)
(3.75051e-06 -9.14272e-06 0.012779)
(1.33114e-06 -9.82873e-06 0.0127815)
(-1.33113e-06 -9.82873e-06 0.0127815)
(-3.75051e-06 -9.14271e-06 0.012779)
(-5.45776e-06 -7.8378e-06 0.0127683)
(-6.05568e-06 -6.05568e-06 0.0127298)
(-5.57957e-06 -3.90529e-06 0.0126023)
(3.69972e-06 -3.69971e-06 0.0123891)
(3.90531e-06 -5.57959e-06 0.0126023)
(3.64252e-06 -7.09183e-06 0.0126951)
(2.51136e-06 -8.28954e-06 0.012732)
(8.94371e-07 -8.91407e-06 0.0127449)
(-8.94361e-07 -8.91407e-06 0.0127449)
(-2.51136e-06 -8.28954e-06 0.012732)
(-3.64252e-06 -7.09182e-06 0.0126951)
(-3.90529e-06 -5.57957e-06 0.0126023)
(-3.6997e-06 -3.6997e-06 0.0123891)
(9.70577e-07 9.70578e-07 0.0123858)
(1.0885e-06 1.58828e-06 0.0125996)
(1.06741e-06 2.08967e-06 0.0126933)
(7.49676e-07 2.50512e-06 0.012731)
(2.70617e-07 2.72119e-06 0.0127444)
(-2.70612e-07 2.72119e-06 0.0127444)
(-7.49672e-07 2.50512e-06 0.012731)
(-1.06741e-06 2.08967e-06 0.0126933)
(-1.0885e-06 1.58828e-06 0.0125996)
(-9.70572e-07 9.7057e-07 0.0123858)
(1.58828e-06 1.0885e-06 0.0125996)
(1.82057e-06 1.82057e-06 0.0127287)
(1.70201e-06 2.44696e-06 0.0127691)
(1.19145e-06 2.92145e-06 0.0127813)
(4.27089e-07 3.17382e-06 0.0127846)
(-4.27088e-07 3.17381e-06 0.0127846)
(-1.19145e-06 2.92145e-06 0.0127813)
(-1.70201e-06 2.44695e-06 0.0127691)
(-1.82057e-06 1.82057e-06 0.0127287)
(-1.58828e-06 1.0885e-06 0.0125996)
(2.08967e-06 1.06741e-06 0.0126933)
(2.44696e-06 1.70201e-06 0.0127691)
(2.27193e-06 2.27193e-06 0.0127861)
(1.58909e-06 2.69844e-06 0.0127893)
(5.69074e-07 2.92576e-06 0.0127897)
(-5.69078e-07 2.92575e-06 0.0127897)
(-1.58909e-06 2.69844e-06 0.0127893)
(-2.27192e-06 2.27192e-06 0.0127861)
(-2.44695e-06 1.70201e-06 0.0127691)
(-2.08966e-06 1.06742e-06 0.0126933)
(2.50512e-06 7.49674e-07 0.012731)
(2.92146e-06 1.19145e-06 0.0127813)
(2.69844e-06 1.58909e-06 0.0127893)
(1.8848e-06 1.8848e-06 0.0127896)
(6.74675e-07 2.04217e-06 0.0127892)
(-6.74678e-07 2.04217e-06 0.0127892)
(-1.8848e-06 1.8848e-06 0.0127896)
(-2.69843e-06 1.58909e-06 0.0127893)
(-2.92144e-06 1.19145e-06 0.0127813)
(-2.50511e-06 7.49679e-07 0.012731)
(2.72119e-06 2.70618e-07 0.0127444)
(3.17382e-06 4.2709e-07 0.0127846)
(2.92575e-06 5.69074e-07 0.0127897)
(2.04217e-06 6.74676e-07 0.0127892)
(7.30856e-07 7.30856e-07 0.0127885)
(-7.30853e-07 7.30858e-07 0.0127885)
(-2.04216e-06 6.74681e-07 0.0127892)
(-2.92575e-06 5.6908e-07 0.0127897)
(-3.1738e-06 4.27092e-07 0.0127846)
(-2.72119e-06 2.70619e-07 0.0127444)
(2.72119e-06 -2.70613e-07 0.0127444)
(3.17381e-06 -4.27087e-07 0.0127846)
(2.92575e-06 -5.69074e-07 0.0127897)
(2.04217e-06 -6.74675e-07 0.0127892)
(7.30858e-07 -7.30852e-07 0.0127885)
(-7.30852e-07 -7.30851e-07 0.0127885)
(-2.04216e-06 -6.74672e-07 0.0127892)
(-2.92574e-06 -5.6907e-07 0.0127897)
(-3.1738e-06 -4.27085e-07 0.0127846)
(-2.72119e-06 -2.70618e-07 0.0127444)
(2.50512e-06 -7.49672e-07 0.012731)
(2.92145e-06 -1.19145e-06 0.0127813)
(2.69844e-06 -1.58909e-06 0.0127893)
(1.8848e-06 -1.8848e-06 0.0127896)
(6.74679e-07 -2.04216e-06 0.0127892)
(-6.74674e-07 -2.04216e-06 0.0127892)
(-1.88479e-06 -1.88479e-06 0.0127896)
(-2.69843e-06 -1.58908e-06 0.0127893)
(-2.92145e-06 -1.19145e-06 0.0127813)
(-2.50511e-06 -7.4968e-07 0.012731)
(2.08967e-06 -1.06741e-06 0.0126933)
(2.44696e-06 -1.70201e-06 0.0127691)
(2.27192e-06 -2.27193e-06 0.0127861)
(1.58909e-06 -2.69843e-06 0.0127893)
(5.69079e-07 -2.92575e-06 0.0127897)
(-5.69073e-07 -2.92575e-06 0.0127897)
(-1.58908e-06 -2.69843e-06 0.0127893)
(-2.27192e-06 -2.27192e-06 0.0127861)
(-2.44696e-06 -1.70201e-06 0.0127691)
(-2.08966e-06 -1.06741e-06 0.0126933)
(1.58828e-06 -1.08849e-06 0.0125996)
(1.82057e-06 -1.82058e-06 0.0127287)
(1.70201e-06 -2.44696e-06 0.0127691)
(1.19146e-06 -2.92144e-06 0.0127813)
(4.27088e-07 -3.17381e-06 0.0127846)
(-4.2709e-07 -3.17381e-06 0.0127846)
(-1.19145e-06 -2.92144e-06 0.0127813)
(-1.70201e-06 -2.44695e-06 0.0127691)
(-1.82057e-06 -1.82057e-06 0.0127287)
(-1.58827e-06 -1.08849e-06 0.0125996)
(9.70568e-07 -9.7057e-07 0.0123858)
(1.08849e-06 -1.58827e-06 0.0125996)
(1.06742e-06 -2.08966e-06 0.0126933)
(7.49682e-07 -2.50511e-06 0.012731)