/*--------------------------------*- C++ -*----------------------------------*\
| =========                 |                                                 |
| \\      /  F ield         | OpenFOAM: The Open Source CFD Toolbox           |
|  \\    /   O peration     | Version:  2412                                  |
|   \\  /    A nd           | Website:  www.openfoam.com                      |
|    \\/     M anipulation  |                                                 |
\*---------------------------------------------------------------------------*/
FoamFile
{
    version     2.0;
    format      ascii;
    arch        "LSB;label=32;scalar=64";
    class       surfaceScalarField;
    location    "2.9";
    object      phi;
}
// * * * * * * * * * * * * * * * * * * * * * * * * * * * * * * * * * * * * * //

dimensions      [0 3 -1 0 0 0 0];

oriented        oriented;

internalField   nonuniform List<scalar> 
43700
(
1.6539e-07
1.6539e-07
5.44851e-07
-2.02807e-07
-2.02807e-07
1.2143e-07
1.45509e-07
5.86411e-07
-1.78577e-07
8.01782e-08
1.33502e-07
6.16364e-07
-1.69184e-07
3.97222e-08
1.25597e-07
6.35875e-07
-1.61304e-07
-9.03086e-16
1.21852e-07
6.45557e-07
-1.57758e-07
-3.97222e-08
1.21852e-07
6.45557e-07
-1.57758e-07
-8.01782e-08
1.25597e-07
6.35875e-07
-1.61304e-07
-1.2143e-07
1.33502e-07
6.16364e-07
-1.69184e-07
-1.6539e-07
1.45509e-07
5.86411e-07
-1.78577e-07
1.6539e-07
5.44851e-07
-2.02807e-07
-2.02807e-07
1.45509e-07
1.2143e-07
5.86411e-07
-1.78577e-07
1.07928e-07
1.07928e-07
6.21005e-07
7.10678e-08
9.81072e-08
6.45946e-07
3.51868e-08
9.16217e-08
6.62353e-07
-8.47166e-16
8.84788e-08
6.70533e-07
-3.51868e-08
8.84788e-08
6.70533e-07
-7.10678e-08
9.16217e-08
6.62353e-07
-1.07928e-07
9.81072e-08
6.45946e-07
-1.45509e-07
1.07928e-07
6.21005e-07
1.2143e-07
5.86411e-07
-1.78577e-07
1.33502e-07
8.01782e-08
6.16364e-07
-1.69184e-07
9.81072e-08
7.10678e-08
6.45946e-07
6.42505e-08
6.42505e-08
6.67587e-07
3.17368e-08
5.97323e-08
6.81966e-07
3.79453e-16
5.75261e-08
6.89167e-07
-3.17368e-08
5.75261e-08
6.89167e-07
-6.42505e-08
5.97323e-08
6.81966e-07
-9.81072e-08
6.42505e-08
6.67587e-07
-1.33502e-07
7.10678e-08
6.45946e-07
8.01782e-08
6.16364e-07
-1.69184e-07
1.25597e-07
3.97222e-08
6.35875e-07
-1.61304e-07
9.16217e-08
3.51868e-08
6.62353e-07
5.97323e-08
3.17368e-08
6.81966e-07
2.94352e-08
2.94352e-08
6.95097e-07
8.79395e-16
2.83067e-08
7.01697e-07
-2.94352e-08
2.83067e-08
7.01697e-07
-5.97323e-08
2.94352e-08
6.95097e-07
-9.16217e-08
3.17368e-08
6.81966e-07
-1.25597e-07
3.51868e-08
6.62353e-07
3.97222e-08
6.35875e-07
-1.61304e-07
1.21852e-07
-1.46461e-15
6.45557e-07
-1.57758e-07
8.84788e-08
-1.12565e-16
6.70533e-07
5.75261e-08
1.69343e-15
6.89167e-07
2.83067e-08
1.94244e-15
7.01697e-07
1.11908e-15
2.06035e-15
7.08006e-07
-2.83067e-08
1.69385e-15
7.08006e-07
-5.75261e-08
1.96551e-15
7.01697e-07
-8.84788e-08
1.86711e-15
6.89167e-07
-1.21852e-07
3.07922e-15
6.70533e-07
3.1435e-15
6.45557e-07
-1.57758e-07
1.21852e-07
-3.97222e-08
6.45557e-07
-1.57758e-07
8.84788e-08
-3.51868e-08
6.70533e-07
5.75261e-08
-3.17368e-08
6.89167e-07
2.83067e-08
-2.94352e-08
7.01697e-07
9.22466e-16
-2.83067e-08
7.08006e-07
-2.83067e-08
-2.83067e-08
7.08006e-07
-5.75261e-08
-2.94352e-08
7.01697e-07
-8.84788e-08
-3.17368e-08
6.89167e-07
-1.21852e-07
-3.51868e-08
6.70533e-07
-3.97222e-08
6.45557e-07
-1.57758e-07
1.25597e-07
-8.01782e-08
6.35875e-07
-1.61304e-07
9.16217e-08
-7.10678e-08
6.62353e-07
5.97323e-08
-6.42505e-08
6.81966e-07
2.94352e-08
-5.97323e-08
6.95097e-07
5.37127e-16
-5.75261e-08
7.01697e-07
-2.94352e-08
-5.75261e-08
7.01697e-07
-5.97323e-08
-5.97323e-08
6.95097e-07
-9.16217e-08
-6.42505e-08
6.81966e-07
-1.25597e-07
-7.10678e-08
6.62353e-07
-8.01782e-08
6.35875e-07
-1.61304e-07
1.33502e-07
-1.2143e-07
6.16364e-07
-1.69184e-07
9.81072e-08
-1.07928e-07
6.45946e-07
6.42505e-08
-9.81072e-08
6.67587e-07
3.17368e-08
-9.16217e-08
6.81966e-07
6.80806e-16
-8.84788e-08
6.89167e-07
-3.17368e-08
-8.84788e-08
6.89167e-07
-6.42505e-08
-9.16217e-08
6.81966e-07
-9.81072e-08
-9.81072e-08
6.67587e-07
-1.33502e-07
-1.07928e-07
6.45946e-07
-1.2143e-07
6.16364e-07
-1.69184e-07
1.45509e-07
-1.6539e-07
5.86411e-07
-1.78577e-07
1.07928e-07
-1.45509e-07
6.21005e-07
7.10678e-08
-1.33502e-07
6.45946e-07
3.51868e-08
-1.25597e-07
6.62353e-07
2.35219e-15
-1.21852e-07
6.70533e-07
-3.51868e-08
-1.21852e-07
6.70533e-07
-7.10678e-08
-1.25597e-07
6.62353e-07
-1.07928e-07
-1.33502e-07
6.45946e-07
-1.45509e-07
-1.45509e-07
6.21005e-07
-1.6539e-07
5.86411e-07
-1.78577e-07
1.6539e-07
5.44851e-07
-2.02807e-07
-2.02807e-07
1.2143e-07
5.86411e-07
-1.78577e-07
8.01782e-08
6.16364e-07
-1.69184e-07
3.97222e-08
6.35875e-07
-1.61304e-07
2.41578e-15
6.45557e-07
-1.57758e-07
-3.97222e-08
6.45557e-07
-1.57758e-07
-8.01782e-08
6.35875e-07
-1.61304e-07
-1.2143e-07
6.16364e-07
-1.69184e-07
-1.6539e-07
5.86411e-07
-1.78577e-07
5.44851e-07
-2.02807e-07
-2.02807e-07
7.47976e-08
7.47976e-08
5.67825e-07
-8.62847e-08
-8.62847e-08
5.89742e-08
7.38311e-08
6.13496e-07
-8.50928e-08
4.07254e-08
7.32987e-08
6.46242e-07
-8.49272e-08
2.07371e-08
7.26742e-08
6.67535e-07
-8.43452e-08
9.7089e-16
7.24495e-08
6.781e-07
-8.42555e-08
-2.07371e-08
7.24495e-08
6.781e-07
-8.42555e-08
-4.07254e-08
7.26742e-08
6.67535e-07
-8.43452e-08
-5.89742e-08
7.32987e-08
6.46242e-07
-8.49272e-08
-7.47976e-08
7.38311e-08
6.13496e-07
-8.50928e-08
7.47976e-08
5.67825e-07
-8.62847e-08
-8.62847e-08
7.38311e-08
5.89742e-08
6.13496e-07
-8.50928e-08
5.85157e-08
5.85157e-08
6.51636e-07
4.05497e-08
5.80904e-08
6.7912e-07
2.07169e-08
5.76357e-08
6.97224e-07
1.03013e-16
5.74321e-08
7.06267e-07
-2.07169e-08
5.74321e-08
7.06267e-07
-4.05497e-08
5.76357e-08
6.97224e-07
-5.85157e-08
5.80904e-08
6.7912e-07
-7.38311e-08
5.85157e-08
6.51636e-07
5.89742e-08
6.13496e-07
-8.50928e-08
7.32987e-08
4.07255e-08
6.46242e-07
-8.49272e-08
5.80904e-08
4.05497e-08
6.7912e-07
4.02768e-08
4.02768e-08
7.03214e-07
2.06064e-08
3.99913e-08
7.19281e-07
1.28698e-15
3.98514e-08
7.27355e-07
-2.06064e-08
3.98514e-08
7.27355e-07
-4.02768e-08
3.99913e-08
7.19281e-07
-5.80904e-08
4.02768e-08
7.03214e-07
-7.32987e-08
4.05497e-08
6.7912e-07
4.07255e-08
6.46242e-07
-8.49272e-08
7.26742e-08
2.07371e-08
6.67535e-07
-8.43452e-08
5.76357e-08
2.07169e-08
6.97224e-07
3.99913e-08
2.06064e-08
7.19281e-07
2.04791e-08
2.04791e-08
7.34121e-07
2.58423e-15
2.04131e-08
7.41614e-07
-2.04791e-08
2.04131e-08
7.41614e-07
-3.99913e-08
2.04791e-08
7.34121e-07
-5.76357e-08
2.06064e-08
7.19281e-07
-7.26742e-08
2.07169e-08
6.97224e-07
2.07371e-08
6.67535e-07
-8.43452e-08
7.24495e-08
-3.42838e-16
6.781e-07
-8.42555e-08
5.74321e-08
4.22077e-16
7.06267e-07
3.98514e-08
3.05144e-15
7.27355e-07
2.04131e-08
3.91538e-15
7.41614e-07
2.54644e-15
3.44069e-15
7.48832e-07
-2.04131e-08
2.95541e-15
7.48832e-07
-3.98514e-08
1.90677e-15
7.41614e-07
-5.74321e-08
1.67501e-15
7.27355e-07
-7.24495e-08
4.76134e-15
7.06267e-07
4.38065e-15
6.781e-07
-8.42555e-08
7.24495e-08
-2.07371e-08
6.781e-07
-8.42555e-08
5.74321e-08
-2.07169e-08
7.06267e-07
3.98514e-08
-2.06064e-08
7.27355e-07
2.04131e-08
-2.04791e-08
7.41614e-07
1.93566e-15
-2.04131e-08
7.48832e-07
-2.04131e-08
-2.04131e-08
7.48832e-07
-3.98514e-08
-2.04791e-08
7.41614e-07
-5.74321e-08
-2.06064e-08
7.27355e-07
-7.24495e-08
-2.07169e-08
7.06267e-07
-2.07371e-08
6.781e-07
-8.42555e-08
7.26742e-08
-4.07254e-08
6.67535e-07
-8.43452e-08
5.76357e-08
-4.05497e-08
6.97224e-07
3.99913e-08
-4.02768e-08
7.19281e-07
2.04791e-08
-3.99913e-08
7.34121e-07
7.80164e-16
-3.98514e-08
7.41614e-07
-2.04791e-08
-3.98514e-08
7.41614e-07
-3.99913e-08
-3.99913e-08
7.34121e-07
-5.76357e-08
-4.02768e-08
7.19281e-07
-7.26742e-08
-4.05497e-08
6.97224e-07
-4.07254e-08
6.67535e-07
-8.43452e-08
7.32987e-08
-5.89742e-08
6.46242e-07
-8.49272e-08
5.80904e-08
-5.85157e-08
6.7912e-07
4.02768e-08
-5.80904e-08
7.03214e-07
2.06064e-08
-5.76357e-08
7.19281e-07
1.49418e-15
-5.74321e-08
7.27355e-07
-2.06064e-08
-5.74321e-08
7.27355e-07
-4.02768e-08
-5.76357e-08
7.19281e-07
-5.80904e-08
-5.80904e-08
7.03214e-07
-7.32987e-08
-5.85157e-08
6.7912e-07
-5.89742e-08
6.46242e-07
-8.49272e-08
7.38311e-08
-7.47976e-08
6.13496e-07
-8.50928e-08
5.85157e-08
-7.38311e-08
6.51636e-07
4.05497e-08
-7.32987e-08
6.7912e-07
2.07169e-08
-7.26742e-08
6.97224e-07
3.6407e-15
-7.24495e-08
7.06267e-07
-2.07169e-08
-7.24495e-08
7.06267e-07
-4.05497e-08
-7.26742e-08
6.97224e-07
-5.85157e-08
-7.32987e-08
6.7912e-07
-7.38311e-08
-7.38311e-08
6.51636e-07
-7.47976e-08
6.13496e-07
-8.50928e-08
7.47976e-08
5.67825e-07
-8.62847e-08
-8.62847e-08
5.89742e-08
6.13496e-07
-8.50928e-08
4.07255e-08
6.46242e-07
-8.49272e-08
2.07371e-08
6.67535e-07
-8.43452e-08
2.14423e-15
6.781e-07
-8.42555e-08
-2.07371e-08
6.781e-07
-8.42555e-08
-4.07254e-08
6.67535e-07
-8.43452e-08
-5.89742e-08
6.46242e-07
-8.49272e-08
-7.47976e-08
6.13496e-07
-8.50928e-08
5.67825e-07
-8.62847e-08
-8.62847e-08
4.19085e-08
4.19085e-08
5.72271e-07
-4.41312e-08
-4.41311e-08
3.5114e-08
4.39758e-08
6.22431e-07
-4.61163e-08
2.5154e-08
4.52105e-08
6.58563e-07
-4.75721e-08
1.30772e-08
4.57573e-08
6.82164e-07
-4.83097e-08
6.91594e-16
4.60173e-08
6.93888e-07
-4.87276e-08
-1.30772e-08
4.60173e-08
6.93888e-07
-4.87276e-08
-2.5154e-08
4.57573e-08
6.82164e-07
-4.83097e-08
-3.5114e-08
4.52105e-08
6.58563e-07
-4.75721e-08
-4.19085e-08
4.39758e-08
6.22431e-07
-4.61164e-08
4.19085e-08
5.72271e-07
-4.41311e-08
-4.41311e-08
4.39758e-08
3.5114e-08
6.22431e-07
-4.61163e-08
3.70139e-08
3.70139e-08
6.6556e-07
2.65833e-08
3.80046e-08
6.96757e-07
1.3847e-08
3.8391e-08
7.17327e-07
-1.41973e-15
3.85409e-08
7.2759e-07
-1.3847e-08
3.85409e-08
7.2759e-07
-2.65833e-08
3.8391e-08
7.17327e-07
-3.70139e-08
3.80046e-08
6.96757e-07
-4.39759e-08
3.70139e-08
6.6556e-07
3.5114e-08
6.22431e-07
-4.61164e-08
4.52105e-08
2.5154e-08
6.58563e-07
-4.75721e-08
3.80046e-08
2.65833e-08
6.96757e-07
2.72655e-08
2.72655e-08
7.24692e-07
1.41965e-08
2.75016e-08
7.43239e-07
7.36026e-16
2.75738e-08
7.52518e-07
-1.41965e-08
2.75738e-08
7.52518e-07
-2.72655e-08
2.75016e-08
7.43239e-07
-3.80046e-08
2.72655e-08
7.24692e-07
-4.52105e-08
2.65833e-08
6.96757e-07
2.5154e-08
6.58563e-07
-4.75721e-08
4.57573e-08
1.30772e-08
6.82164e-07
-4.83097e-08
3.8391e-08
1.3847e-08
7.17327e-07
2.75016e-08
1.41965e-08
7.43239e-07
1.43083e-08
1.43083e-08
7.60508e-07
2.36295e-15
1.4336e-08
7.6916e-07
-1.43083e-08
1.4336e-08
7.6916e-07
-2.75016e-08
1.43083e-08
7.60508e-07
-3.8391e-08
1.41965e-08
7.43239e-07
-4.57573e-08
1.3847e-08
7.17327e-07
1.30772e-08
6.82164e-07
-4.83097e-08
4.60173e-08
-6.88012e-16
6.93888e-07
-4.87276e-08
3.85409e-08
9.64598e-16
7.2759e-07
2.75738e-08
3.7256e-15
7.52518e-07
1.4336e-08
4.39267e-15
7.6916e-07
2.19281e-15
3.66086e-15
7.77504e-07
-1.4336e-08
2.49377e-15
7.77504e-07
-2.75738e-08
1.39204e-15
7.6916e-07
-3.85409e-08
1.55403e-15
7.52518e-07
-4.60173e-08
3.5895e-15
7.2759e-07
3.2934e-15
6.93888e-07
-4.87276e-08
4.60173e-08
-1.30772e-08
6.93888e-07
-4.87276e-08
3.85409e-08
-1.3847e-08
7.2759e-07
2.75738e-08
-1.41965e-08
7.52518e-07
1.4336e-08
-1.43083e-08
7.6916e-07
8.16427e-16
-1.4336e-08
7.77504e-07
-1.4336e-08
-1.4336e-08
7.77504e-07
-2.75738e-08
-1.43083e-08
7.6916e-07
-3.85409e-08
-1.41965e-08
7.52518e-07
-4.60173e-08
-1.3847e-08
7.2759e-07
-1.30772e-08
6.93888e-07
-4.87276e-08
4.57573e-08
-2.5154e-08
6.82164e-07
-4.83097e-08
3.8391e-08
-2.65833e-08
7.17327e-07
2.75016e-08
-2.72655e-08
7.43239e-07
1.43083e-08
-2.75016e-08
7.60508e-07
-4.02622e-16
-2.75738e-08
7.6916e-07
-1.43083e-08
-2.75738e-08
7.6916e-07
-2.75016e-08
-2.75016e-08
7.60508e-07
-3.8391e-08
-2.72655e-08
7.43239e-07
-4.57573e-08
-2.65833e-08
7.17327e-07
-2.5154e-08
6.82164e-07
-4.83097e-08
4.52105e-08
-3.5114e-08
6.58563e-07
-4.75721e-08
3.80046e-08
-3.70139e-08
6.96757e-07
2.72655e-08
-3.80046e-08
7.24692e-07
1.41965e-08
-3.8391e-08
7.43239e-07
3.98589e-16
-3.85409e-08
7.52518e-07
-1.41965e-08
-3.85409e-08
7.52518e-07
-2.72655e-08
-3.8391e-08
7.43239e-07
-3.80046e-08
-3.80046e-08
7.24692e-07
-4.52105e-08
-3.70139e-08
6.96757e-07
-3.5114e-08
6.58563e-07
-4.75721e-08
4.39758e-08
-4.19085e-08
6.22431e-07
-4.61164e-08
3.70139e-08
-4.39758e-08
6.6556e-07
2.65833e-08
-4.52105e-08
6.96757e-07
1.3847e-08
-4.57573e-08
7.17327e-07
3.3222e-15
-4.60173e-08
7.2759e-07
-1.3847e-08
-4.60173e-08
7.2759e-07
-2.65833e-08
-4.57573e-08
7.17327e-07
-3.70139e-08
-4.52105e-08
6.96757e-07
-4.39758e-08
-4.39758e-08
6.6556e-07
-4.19085e-08
6.22431e-07
-4.61163e-08
4.19085e-08
5.72271e-07
-4.41311e-08
-4.41311e-08
3.5114e-08
6.22431e-07
-4.61164e-08
2.5154e-08
6.58563e-07
-4.75721e-08
1.30772e-08
6.82164e-07
-4.83097e-08
2.13495e-15
6.93888e-07
-4.87276e-08
-1.30772e-08
6.93888e-07
-4.87276e-08
-2.5154e-08
6.82164e-07
-4.83097e-08
-3.5114e-08
6.58563e-07
-4.75721e-08
-4.19085e-08
6.22431e-07
-4.61163e-08
5.72271e-07
-4.41311e-08
-4.41311e-08
1.4279e-08
1.4279e-08
5.71334e-07
-1.38106e-08
-1.38106e-08
1.28654e-08
1.65943e-08
6.23206e-07
-1.59553e-08
9.6406e-09
1.81658e-08
6.6097e-07
-1.73474e-08
5.14478e-09
1.9097e-08
6.85813e-07
-1.82506e-08
1.08647e-15
1.95556e-08
6.98195e-07
-1.87187e-08
-5.14477e-09
1.95556e-08
6.98195e-07
-1.87187e-08
-9.6406e-09
1.9097e-08
6.85813e-07
-1.82506e-08
-1.28654e-08
1.81657e-08
6.6097e-07
-1.73474e-08
-1.4279e-08
1.65943e-08
6.23206e-07
-1.59553e-08
1.4279e-08
5.71334e-07
-1.38106e-08
-1.38106e-08
1.65943e-08
1.28654e-08
6.23206e-07
-1.59553e-08
1.49274e-08
1.49274e-08
6.68894e-07
1.12023e-08
1.63213e-08
7.02326e-07
5.98328e-09
1.71318e-08
7.24511e-07
7.5245e-16
1.75171e-08
7.35612e-07
-5.98328e-09
1.75171e-08
7.35612e-07
-1.12023e-08
1.71318e-08
7.24511e-07
-1.49274e-08
1.63213e-08
7.02326e-07
-1.65943e-08
1.49274e-08
6.68894e-07
1.28654e-08
6.23206e-07
-1.59553e-08
1.81657e-08
9.6406e-09
6.6097e-07
-1.73474e-08
1.63213e-08
1.12023e-08
7.02326e-07
1.22283e-08
1.22283e-08
7.32878e-07
6.52616e-09
1.28163e-08
7.53257e-07
1.90569e-15
1.30892e-08
7.63472e-07
-6.52615e-09
1.30892e-08
7.63472e-07
-1.22283e-08
1.28163e-08
7.53257e-07
-1.63213e-08
1.22283e-08
7.32878e-07
-1.81657e-08
1.12023e-08
7.02326e-07
9.6406e-09
6.6097e-07
-1.73474e-08
1.9097e-08
5.14477e-09
6.85813e-07
-1.82506e-08
1.71318e-08
5.98328e-09
7.24511e-07
1.28163e-08
6.52616e-09
7.53257e-07
6.83459e-09
6.83459e-09
7.72471e-07
2.54366e-15
6.9758e-09
7.82108e-07
-6.83458e-09
6.9758e-09
7.82108e-07
-1.28163e-08
6.83458e-09
7.72471e-07
-1.71318e-08
6.52616e-09
7.53257e-07
-1.9097e-08
5.98328e-09
7.24511e-07
5.14477e-09
6.85813e-07
-1.82506e-08
1.95556e-08
3.66701e-16
6.98195e-07
-1.87187e-08
1.75171e-08
5.26625e-16
7.35612e-07
1.30892e-08
2.31193e-15
7.63472e-07
6.9758e-09
2.89642e-15
7.82108e-07
2.22045e-15
2.80814e-15
7.91456e-07
-6.9758e-09
2.08284e-15
7.91456e-07
-1.30892e-08
1.61142e-15
7.82108e-07
-1.75171e-08
1.80522e-15
7.63472e-07
-1.95556e-08
3.35119e-15
7.35612e-07
3.00509e-15
6.98195e-07
-1.87187e-08
1.95556e-08
-5.14477e-09
6.98195e-07
-1.87187e-08
1.75171e-08
-5.98328e-09
7.35612e-07
1.30892e-08
-6.52615e-09
7.63472e-07
6.9758e-09
-6.83458e-09
7.82108e-07
1.43084e-15
-6.9758e-09
7.91456e-07
-6.9758e-09
-6.9758e-09
7.91456e-07
-1.30892e-08
-6.83458e-09
7.82108e-07
-1.75171e-08
-6.52615e-09
7.63472e-07
-1.95556e-08
-5.98327e-09
7.35612e-07
-5.14477e-09
6.98195e-07
-1.87187e-08
1.9097e-08
-9.6406e-09
6.85813e-07
-1.82506e-08
1.71318e-08
-1.12023e-08
7.24511e-07
1.28163e-08
-1.22283e-08
7.53257e-07
6.83458e-09
-1.28163e-08
7.72471e-07
1.2321e-15
-1.30892e-08
7.82108e-07
-6.83458e-09
-1.30892e-08
7.82108e-07
-1.28163e-08
-1.28163e-08
7.72471e-07
-1.71318e-08
-1.22283e-08
7.53257e-07
-1.9097e-08
-1.12023e-08
7.24511e-07
-9.64059e-09
6.85813e-07
-1.82506e-08
1.81657e-08
-1.28654e-08
6.6097e-07
-1.73474e-08
1.63213e-08
-1.49274e-08
7.02326e-07
1.22283e-08
-1.63213e-08
7.32878e-07
6.52616e-09
-1.71318e-08
7.53257e-07
1.66819e-15
-1.75171e-08
7.63472e-07
-6.52615e-09
-1.75171e-08
7.63472e-07
-1.22283e-08
-1.71318e-08
7.53257e-07
-1.63213e-08
-1.63213e-08
7.32878e-07
-1.81657e-08
-1.49274e-08
7.02326e-07
-1.28654e-08
6.6097e-07
-1.73474e-08
1.65943e-08
-1.4279e-08
6.23206e-07
-1.59553e-08
1.49274e-08
-1.65943e-08
6.68894e-07
1.12023e-08
-1.81657e-08
7.02326e-07
5.98328e-09
-1.9097e-08
7.24511e-07
2.28813e-15
-1.95556e-08
7.35612e-07
-5.98327e-09
-1.95556e-08
7.35612e-07
-1.12023e-08
-1.9097e-08
7.24511e-07
-1.49274e-08
-1.81658e-08
7.02326e-07
-1.65943e-08
-1.65943e-08
6.68894e-07
-1.4279e-08
6.23206e-07
-1.59553e-08
1.4279e-08
5.71334e-07
-1.38106e-08
-1.38106e-08
1.28654e-08
6.23206e-07
-1.59553e-08
9.6406e-09
6.6097e-07
-1.73474e-08
5.14477e-09
6.85813e-07
-1.82506e-08
8.92126e-16
6.98195e-07
-1.87187e-08
-5.14477e-09
6.98195e-07
-1.87187e-08
-9.64059e-09
6.85813e-07
-1.82506e-08
-1.28654e-08
6.6097e-07
-1.73474e-08
-1.4279e-08
6.23206e-07
-1.59553e-08
5.71334e-07
-1.38106e-08
-1.38106e-08
4.77114e-09
4.77114e-09
5.70595e-07
-4.40142e-09
-4.40142e-09
4.43255e-09
5.76801e-09
6.23031e-07
-5.25401e-09
3.38453e-09
6.483e-09
6.61365e-07
-5.8299e-09
1.82642e-09
6.94029e-09
6.86658e-07
-6.22721e-09
-4.92993e-16
7.17155e-09
6.99283e-07
-6.43242e-09
-1.82643e-09
7.17155e-09
6.99283e-07
-6.43242e-09
-3.38454e-09
6.9403e-09
6.86658e-07
-6.22721e-09
-4.43255e-09
6.483e-09
6.61365e-07
-5.82991e-09
-4.77114e-09
5.76801e-09
6.23031e-07
-5.25401e-09
4.77113e-09
5.70595e-07
-4.40142e-09
-4.40142e-09
5.76801e-09
4.43255e-09
6.23031e-07
-5.25401e-09
5.37745e-09
5.37746e-09
6.69675e-07
4.12935e-09
6.0655e-09
7.03992e-07
2.23509e-09
6.50051e-09
7.26845e-07
1.19287e-16
6.71651e-09
7.38302e-07
-2.23509e-09
6.71651e-09
7.38302e-07
-4.12935e-09
6.50051e-09
7.26845e-07
-5.37746e-09
6.0655e-09
7.03992e-07
-5.76801e-09
5.37745e-09
6.69675e-07
4.43254e-09
6.23031e-07
-5.25402e-09
6.48301e-09
3.38453e-09
6.61365e-07
-5.82991e-09
6.0655e-09
4.12935e-09
7.03992e-07
4.66642e-09
4.66642e-09
7.35676e-07
2.52863e-09
5.00391e-09
7.56891e-07
1.21675e-15
5.16939e-09
7.67548e-07
-2.52863e-09
5.16939e-09
7.67548e-07
-4.66642e-09
5.00391e-09
7.56891e-07
-6.0655e-09
4.66642e-09
7.35676e-07
-6.483e-09
4.12935e-09
7.03992e-07
3.38453e-09
6.61365e-07
-5.8299e-09
6.94029e-09
1.82642e-09
6.86658e-07
-6.22721e-09
6.50051e-09
2.23509e-09
7.26845e-07
5.00391e-09
2.52863e-09
7.56891e-07
2.71278e-09
2.71278e-09
7.77054e-07
1.80519e-15
2.80249e-09
7.87188e-07
-2.71278e-09
2.80249e-09
7.87188e-07
-5.00391e-09
2.71278e-09
7.77054e-07
-6.5005e-09
2.52863e-09
7.56891e-07
-6.94029e-09
2.23509e-09
7.26845e-07
1.82643e-09
6.86658e-07
-6.22721e-09
7.17155e-09
-3.4081e-16
6.99283e-07
-6.43242e-09
6.71651e-09
2.49432e-15
7.38302e-07
5.16939e-09
3.2924e-15
7.67548e-07
2.80249e-09
3.25204e-15
7.87188e-07
1.51199e-15
2.7955e-15
7.97061e-07
-2.80249e-09
2.06975e-15
7.97061e-07
-5.16939e-09
1.37603e-15
7.87188e-07
-6.7165e-09
4.04285e-16
7.67548e-07
-7.17155e-09
2.76461e-16
7.38302e-07
1.23452e-15
6.99283e-07
-6.43242e-09
7.17155e-09
-1.82643e-09
6.99283e-07
-6.43242e-09
6.71651e-09
-2.23509e-09
7.38302e-07
5.16939e-09
-2.52863e-09
7.67548e-07
2.80249e-09
-2.71278e-09
7.87188e-07
7.86916e-16
-2.80249e-09
7.97061e-07
-2.80249e-09
-2.80249e-09
7.97061e-07
-5.16939e-09
-2.71278e-09
7.87188e-07
-6.7165e-09
-2.52863e-09
7.67548e-07
-7.17155e-09
-2.23509e-09
7.38302e-07
-1.82642e-09
6.99283e-07
-6.43242e-09
6.94029e-09
-3.38453e-09
6.86658e-07
-6.22721e-09
6.5005e-09
-4.12934e-09
7.26845e-07
5.00391e-09
-4.66642e-09
7.56891e-07
2.71278e-09
-5.00391e-09
7.77054e-07
-1.11606e-16
-5.16939e-09
7.87188e-07
-2.71278e-09
-5.16939e-09
7.87188e-07
-5.00391e-09
-5.00391e-09
7.77054e-07
-6.5005e-09
-4.66642e-09
7.56891e-07
-6.94029e-09
-4.12935e-09
7.26845e-07
-3.38453e-09
6.86658e-07
-6.22721e-09
6.483e-09
-4.43254e-09
6.61365e-07
-5.8299e-09
6.0655e-09
-5.37745e-09
7.03992e-07
4.66642e-09
-6.0655e-09
7.35676e-07
2.52863e-09
-6.5005e-09
7.56891e-07
-7.962e-16
-6.7165e-09
7.67548e-07
-2.52863e-09
-6.7165e-09
7.67548e-07
-4.66642e-09
-6.5005e-09
7.56891e-07
-6.0655e-09
-6.0655e-09
7.35676e-07
-6.48301e-09
-5.37745e-09
7.03992e-07
-4.43254e-09
6.61365e-07
-5.8299e-09
5.76801e-09
-4.77113e-09
6.23031e-07
-5.25401e-09
5.37745e-09
-5.76801e-09
6.69675e-07
4.12935e-09
-6.483e-09
7.03992e-07
2.23509e-09
-6.94029e-09
7.26845e-07
-2.53137e-16
-7.17155e-09
7.38302e-07
-2.23509e-09
-7.17155e-09
7.38302e-07
-4.12935e-09
-6.94029e-09
7.26845e-07
-5.37745e-09
-6.483e-09
7.03992e-07
-5.76801e-09
-5.76801e-09
6.69675e-07
-4.77113e-09
6.23031e-07
-5.25401e-09
4.77114e-09
5.70595e-07
-4.40142e-09
-4.40142e-09
4.43255e-09
6.23031e-07
-5.25401e-09
3.38453e-09
6.61365e-07
-5.8299e-09
1.82643e-09
6.86658e-07
-6.22721e-09
1.71369e-15
6.99283e-07
-6.43242e-09
-1.82642e-09
6.99283e-07
-6.43242e-09
-3.38452e-09
6.86658e-07
-6.22721e-09
-4.43254e-09
6.61365e-07
-5.8299e-09
-4.77113e-09
6.23031e-07
-5.25401e-09
5.70595e-07
-4.40142e-09
-4.40142e-09
1.61526e-09
1.61526e-09
5.70198e-07
-1.41697e-09
-1.41697e-09
1.54806e-09
2.02266e-09
6.22828e-07
-1.75256e-09
1.20491e-09
2.31947e-09
6.61373e-07
-1.98437e-09
6.57383e-10
2.51419e-09
6.86839e-07
-2.14759e-09
-3.28472e-16
2.61283e-09
6.99558e-07
-2.2309e-09
-6.57383e-10
2.61283e-09
6.99558e-07
-2.2309e-09
-1.20491e-09
2.51418e-09
6.86839e-07
-2.14758e-09
-1.54806e-09
2.31946e-09
6.61373e-07
-1.98437e-09
-1.61526e-09
2.02266e-09
6.22828e-07
-1.75256e-09
1.61527e-09
5.70198e-07
-1.41697e-09
-1.41697e-09
2.02266e-09
1.54807e-09
6.22828e-07
-1.75256e-09
1.94334e-09
1.94335e-09
6.69834e-07
1.51972e-09
2.23677e-09
7.04498e-07
8.30942e-10
2.42702e-09
7.27621e-07
-6.18015e-16
2.52241e-09
7.39224e-07
-8.30945e-10
2.5224e-09
7.39224e-07
-1.51972e-09
2.42701e-09
7.27621e-07
-1.94335e-09
2.23677e-09
7.04498e-07
-2.02266e-09
1.94335e-09
6.69834e-07
1.54807e-09
6.22828e-07
-1.75256e-09
2.31946e-09
1.20491e-09
6.61373e-07
-1.98437e-09
2.23677e-09
1.51972e-09
7.04498e-07
1.75322e-09
1.75322e-09
7.36643e-07
9.59894e-10
1.90405e-09
7.58207e-07
9.58769e-16
1.97907e-09
7.69051e-07
-9.59893e-10
1.97907e-09
7.69051e-07
-1.75322e-09
1.90405e-09
7.58207e-07
-2.23677e-09
1.75322e-09
7.36643e-07
-2.31947e-09
1.51973e-09
7.04498e-07
1.20491e-09
6.61373e-07
-1.98437e-09
2.51419e-09
6.57383e-10
6.86839e-07
-2.14759e-09
2.42702e-09
8.30944e-10
7.27621e-07
1.90405e-09
9.59894e-10
7.58207e-07
1.04327e-09
1.04327e-09
7.78775e-07
1.88408e-15
1.08458e-09
7.89126e-07
-1.04326e-09
1.08458e-09
7.89126e-07
-1.90405e-09
1.04327e-09
7.78775e-07
-2.42702e-09
9.59894e-10
7.58207e-07
-2.51419e-09
8.30946e-10
7.27621e-07
6.57382e-10
6.86839e-07
-2.14759e-09
2.61283e-09
-6.76968e-16
6.99558e-07
-2.2309e-09
2.52241e-09
-3.00857e-16
7.39224e-07
1.97907e-09
4.5699e-16
7.69051e-07
1.08458e-09
1.67892e-15
7.89126e-07
2.15264e-15
2.13503e-15
7.9923e-07
-1.08458e-09
2.05247e-15
7.9923e-07
-1.97907e-09
1.84195e-15
7.89126e-07
-2.5224e-09
2.14154e-15
7.69051e-07
-2.61283e-09
1.87386e-15
7.39224e-07
-6.30275e-16
6.99558e-07
-2.2309e-09
2.61283e-09
-6.57384e-10
6.99558e-07
-2.2309e-09
2.5224e-09
-8.30945e-10
7.39224e-07
1.97907e-09
-9.59895e-10
7.69051e-07
1.08458e-09
-1.04326e-09
7.89126e-07
2.22412e-15
-1.08458e-09
7.9923e-07
-1.08458e-09
-1.08458e-09
7.9923e-07
-1.97907e-09
-1.04326e-09
7.89126e-07
-2.5224e-09
-9.59891e-10
7.69051e-07
-2.61283e-09
-8.30942e-10
7.39224e-07
-6.57383e-10
6.99558e-07
-2.2309e-09
2.51419e-09
-1.20491e-09
6.86839e-07
-2.14758e-09
2.42702e-09
-1.51973e-09
7.27621e-07
1.90405e-09
-1.75322e-09
7.58207e-07
1.04327e-09
-1.90405e-09
7.78775e-07
1.88995e-15
-1.97907e-09
7.89126e-07
-1.04326e-09
-1.97907e-09
7.89126e-07
-1.90405e-09
-1.90404e-09
7.78775e-07
-2.42702e-09
-1.75321e-09
7.58207e-07
-2.51419e-09
-1.51972e-09
7.27621e-07
-1.20491e-09
6.86839e-07
-2.14758e-09
2.31947e-09
-1.54807e-09
6.61373e-07
-1.98437e-09
2.23678e-09
-1.94335e-09
7.04498e-07
1.75322e-09
-2.23678e-09
7.36643e-07
9.59896e-10
-2.42702e-09
7.58207e-07
2.41015e-15
-2.5224e-09
7.69051e-07
-9.59892e-10
-2.5224e-09
7.69051e-07
-1.75322e-09
-2.42701e-09
7.58207e-07
-2.23677e-09
-2.23677e-09
7.36643e-07
-2.31946e-09
-1.94335e-09
7.04498e-07
-1.54807e-09
6.61373e-07
-1.98437e-09
2.02266e-09
-1.61526e-09
6.22828e-07
-1.75256e-09
1.94335e-09
-2.02267e-09
6.69834e-07
1.51973e-09
-2.31947e-09
7.04498e-07
8.30947e-10
-2.51419e-09
7.27621e-07
2.8815e-15
-2.61283e-09
7.39224e-07
-8.30939e-10
-2.61283e-09
7.39224e-07
-1.51972e-09
-2.51418e-09
7.27621e-07
-1.94334e-09
-2.31946e-09
7.04498e-07
-2.02266e-09
-2.02266e-09
6.69834e-07
-1.61526e-09
6.22828e-07
-1.75256e-09
1.61526e-09
5.70198e-07
-1.41697e-09
-1.41697e-09
1.54806e-09
6.22828e-07
-1.75256e-09
1.20491e-09
6.61373e-07
-1.98438e-09
6.57381e-10
6.86839e-07
-2.14758e-09
-2.82925e-16
6.99558e-07
-2.2309e-09
-6.57379e-10
6.99558e-07
-2.2309e-09
-1.2049e-09
6.86839e-07
-2.14758e-09
-1.54806e-09
6.61373e-07
-1.98437e-09
-1.61526e-09
6.22828e-07
-1.75256e-09
5.70198e-07
-1.41697e-09
-1.41697e-09
5.12526e-10
5.12528e-10
5.70037e-07
-4.32095e-10
-4.32095e-10
5.07839e-10
6.72523e-10
6.2272e-07
-5.59788e-10
4.03203e-10
7.92304e-10
6.61333e-07
-6.47596e-10
2.22658e-10
8.73514e-10
6.86859e-07
-7.12306e-10
-1.57293e-16
9.15049e-10
6.99611e-07
-7.45239e-10
-2.22659e-10
9.15051e-10
6.99611e-07
-7.45239e-10
-4.03205e-10
8.73513e-10
6.86859e-07
-7.12305e-10
-5.07838e-10
7.92297e-10
6.61333e-07
-6.47593e-10
-5.12522e-10
6.72517e-10
6.2272e-07
-5.59786e-10
5.12524e-10
5.70037e-07
-4.32092e-10
-4.32092e-10
6.72524e-10
5.07842e-10
6.2272e-07
-5.59788e-10
6.66143e-10
6.66141e-10
6.69847e-07
5.31359e-10
7.8822e-10
7.04637e-07
2.93877e-10
8.70019e-10
7.27862e-07
1.75485e-15
9.11608e-10
7.39521e-07
-2.93873e-10
9.11609e-10
7.39521e-07
-5.31354e-10
8.70018e-10
7.27862e-07
-6.66139e-10
7.88216e-10
7.04637e-07
-6.7252e-10
6.66136e-10
6.69847e-07
5.07837e-10
6.2272e-07
-5.59786e-10
7.92309e-10
4.03203e-10
6.61333e-07
-6.47598e-10
7.88225e-10
5.31357e-10
7.04637e-07
6.3039e-10
6.30388e-10
7.36959e-07
3.49114e-10
6.965e-10
7.58662e-07
2.19007e-15
7.29911e-10
7.69582e-07
-3.49109e-10
7.29911e-10
7.69582e-07
-6.30386e-10
6.96498e-10
7.58662e-07
-7.8822e-10
6.30386e-10
7.36959e-07
-7.92304e-10
5.31354e-10
7.04637e-07
4.03198e-10
6.61333e-07
-6.47594e-10
8.73517e-10
2.22656e-10
6.86859e-07
-7.12308e-10
8.70021e-10
2.93877e-10
7.27862e-07
6.965e-10
3.49113e-10
7.58662e-07
3.86022e-10
3.86022e-10
7.79396e-07
1.70435e-15
4.04625e-10
7.89837e-07
-3.86019e-10
4.04625e-10
7.89837e-07
-6.96498e-10
3.86021e-10
7.79396e-07
-8.70018e-10
3.49111e-10
7.58662e-07
-8.73514e-10
2.93874e-10
7.27862e-07
2.22653e-10
6.86859e-07
-7.12306e-10
9.1505e-10
-9.36137e-16
6.99611e-07
-7.4524e-10
9.11608e-10
2.37073e-15
7.39521e-07
7.2991e-10
2.9164e-15
7.69582e-07
4.04624e-10
2.65688e-15
7.89837e-07
1.37328e-15
2.34458e-15
8.00039e-07
-4.04621e-10
1.72636e-15
8.00039e-07
-7.29907e-10
8.87734e-16
7.89837e-07
-9.11605e-10
5.62514e-16
7.69582e-07
-9.15047e-10
3.76717e-16
7.39521e-07
6.71643e-16
6.99611e-07
-7.45242e-10
9.1505e-10
-2.22658e-10
6.99611e-07
-7.45239e-10
9.11608e-10
-2.93872e-10
7.39521e-07
7.29909e-10
-3.49107e-10
7.69582e-07
4.04623e-10
-3.86017e-10
7.89837e-07
5.78851e-16
-4.0462e-10
8.00039e-07
-4.04622e-10
-4.04621e-10
8.00039e-07
-7.29908e-10
-3.8602e-10
7.89837e-07
-9.11605e-10
-3.4911e-10
7.69582e-07
-9.15048e-10
-2.93873e-10
7.39521e-07
-2.22651e-10
6.99611e-07
-7.45242e-10
8.73513e-10
-4.03205e-10
6.86859e-07
-7.12305e-10
8.70018e-10
-5.31353e-10
7.27862e-07
6.96499e-10
-6.30381e-10
7.58662e-07
3.86021e-10
-6.96495e-10
7.79396e-07
1.7602e-16
-7.29906e-10
7.89837e-07
-3.8602e-10
-7.29907e-10
7.89837e-07
-6.96498e-10
-6.96499e-10
7.79396e-07
-8.70017e-10
-6.30387e-10
7.58662e-07
-8.73513e-10
-5.31352e-10
7.27862e-07
-4.03195e-10
6.86859e-07
-7.12306e-10
7.923e-10
-5.07841e-10
6.61333e-07
-6.47593e-10
7.88218e-10
-6.66137e-10
7.04637e-07
6.30387e-10
-7.88214e-10
7.36959e-07
3.49111e-10
-8.70016e-10
7.58662e-07
3.6903e-16
-9.11604e-10
7.69582e-07
-3.49109e-10
-9.11606e-10
7.69582e-07
-6.30384e-10
-8.7002e-10
7.58662e-07
-7.88216e-10
-7.8822e-10
7.36959e-07
-7.92303e-10
-6.66133e-10
7.04637e-07
-5.07834e-10
6.61333e-07
-6.47592e-10
6.72518e-10
-5.12524e-10
6.2272e-07
-5.59786e-10
6.66134e-10
-6.72516e-10
6.69847e-07
5.31351e-10
-7.92299e-10
7.04637e-07
2.93871e-10
-8.73513e-10
7.27862e-07
-7.41313e-16
-9.15048e-10
7.39521e-07
-2.93874e-10
-9.1505e-10
7.39521e-07
-5.31354e-10
-8.73517e-10
7.27862e-07
-6.66138e-10
-7.92304e-10
7.04637e-07
-6.7252e-10
-6.72515e-10
6.69847e-07
-5.12521e-10
6.2272e-07
-5.59784e-10
5.12522e-10
5.70037e-07
-4.32092e-10
-4.32092e-10
5.07835e-10
6.2272e-07
-5.59784e-10
4.03197e-10
6.61333e-07
-6.47591e-10
2.22653e-10
6.86859e-07
-7.12307e-10
2.37697e-16
6.99611e-07
-7.45241e-10
-2.22655e-10
6.99611e-07
-7.45241e-10
-4.03203e-10
6.86859e-07
-7.12307e-10
-5.0784e-10
6.61333e-07
-6.47594e-10
-5.12524e-10
6.2272e-07
-5.59784e-10
5.70037e-07
-4.32092e-10
-4.32091e-10
1.62692e-10
1.62688e-10
5.6998e-07
-1.34146e-10
-1.34145e-10
1.64446e-10
2.19775e-10
6.22677e-07
-1.78705e-10
1.3195e-10
2.63413e-10
6.61311e-07
-2.08894e-10
7.33823e-11
2.93942e-10
6.86856e-07
-2.32277e-10
-5.15776e-16
3.09701e-10
6.99619e-07
-2.44096e-10
-7.33834e-11
3.097e-10
6.99619e-07
-2.44095e-10
-1.3195e-10
2.93939e-10
6.86856e-07
-2.32275e-10
-1.64444e-10
2.63415e-10
6.61311e-07
-2.08896e-10
-1.62694e-10
2.19783e-10
6.22677e-07
-1.78708e-10
1.62691e-10
5.6998e-07
-1.34148e-10
-1.34147e-10
2.19778e-10
1.64438e-10
6.22677e-07
-1.78705e-10
2.21995e-10
2.21992e-10
6.69842e-07
1.79406e-10
2.67931e-10
7.04675e-07
1.00012e-10
2.99686e-10
7.27936e-07
-1.18056e-15
3.16074e-10
7.39615e-07
-1.00014e-10
3.16072e-10
7.39615e-07
-1.7941e-10
2.99684e-10
7.27936e-07
-2.22002e-10
2.67933e-10
7.04675e-07
-2.19785e-10
2.21999e-10
6.69842e-07
1.64439e-10
6.22677e-07
-1.78707e-10
2.63408e-10
1.31945e-10
6.61311e-07
-2.08892e-10
2.67924e-10
1.79405e-10
7.04675e-07
2.17511e-10
2.17515e-10
7.3706e-07
1.21525e-10
2.4378e-10
7.58814e-07
-8.03325e-16
2.57283e-10
7.69762e-07
-1.21527e-10
2.57283e-10
7.69762e-07
-2.17515e-10
2.4378e-10
7.58814e-07
-2.67931e-10
2.17517e-10
7.3706e-07
-2.63415e-10
1.79409e-10
7.04675e-07
1.31944e-10
6.61311e-07
-2.08896e-10
2.93935e-10
7.3381e-11
6.86856e-07
-2.32274e-10
2.99679e-10
1.00011e-10
7.27936e-07
2.43776e-10
1.21527e-10
7.58814e-07
1.36381e-10
1.36382e-10
7.79611e-07
5.99904e-17
1.44008e-10
7.90087e-07
-1.36381e-10
1.44008e-10
7.90087e-07
-2.43778e-10
1.36384e-10
7.79611e-07
-2.99681e-10
1.21529e-10
7.58814e-07