/*--------------------------------*- C++ -*----------------------------------*\
| =========                 |                                                 |
| \\      /  F ield         | OpenFOAM: The Open Source CFD Toolbox           |
|  \\    /   O peration     | Version:  2412                                  |
|   \\  /    A nd           | Website:  www.openfoam.com                      |
|    \\/     M anipulation  |                                                 |
\*---------------------------------------------------------------------------*/
FoamFile
{
    version     2.0;
    format      ascii;
    arch        "LSB;label=32;scalar=64";
    class       surfaceScalarField;
    location    "7.6";
    object      phi;
}
// * * * * * * * * * * * * * * * * * * * * * * * * * * * * * * * * * * * * * //

dimensions      [0 3 -1 0 0 0 0];

oriented        oriented;

internalField   nonuniform List<scalar> 
43700
(
1.85116e-07
1.85116e-07
5.49808e-07
-2.25011e-07
-2.25011e-07
1.37039e-07
1.64321e-07
5.938e-07
-2.0066e-07
9.0818e-08
1.50898e-07
6.25065e-07
-1.90311e-07
4.50855e-08
1.41941e-07
6.45157e-07
-1.81653e-07
-9.70706e-17
1.37631e-07
6.55038e-07
-1.77655e-07
-4.50855e-08
1.37631e-07
6.55038e-07
-1.77655e-07
-9.0818e-08
1.41941e-07
6.45157e-07
-1.81653e-07
-1.37039e-07
1.50898e-07
6.25065e-07
-1.90311e-07
-1.85116e-07
1.64321e-07
5.938e-07
-2.0066e-07
1.85116e-07
5.49808e-07
-2.25011e-07
-2.25011e-07
1.64321e-07
1.37039e-07
5.938e-07
-2.0066e-07
1.22303e-07
1.22303e-07
6.29878e-07
8.06308e-08
1.11097e-07
6.55163e-07
3.99433e-08
1.03606e-07
6.71519e-07
-9.61492e-17
9.99379e-08
6.79608e-07
-3.99433e-08
9.99379e-08
6.79608e-07
-8.06308e-08
1.03606e-07
6.71519e-07
-1.22303e-07
1.11097e-07
6.55163e-07
-1.64321e-07
1.22303e-07
6.29878e-07
1.37039e-07
5.938e-07
-2.0066e-07
1.50898e-07
9.0818e-08
6.25065e-07
-1.90311e-07
1.11097e-07
8.06308e-08
6.55163e-07
7.27868e-08
7.27868e-08
6.76494e-07
3.59552e-08
6.75289e-08
6.90471e-07
2.68182e-16
6.49372e-08
6.97434e-07
-3.59552e-08
6.49372e-08
6.97434e-07
-7.27868e-08
6.75289e-08
6.90471e-07
-1.11097e-07
7.27868e-08
6.76494e-07
-1.50898e-07
8.06308e-08
6.55163e-07
9.08179e-08
6.25065e-07
-1.90311e-07
1.41941e-07
4.50855e-08
6.45157e-07
-1.81653e-07
1.03606e-07
3.99433e-08
6.71519e-07
6.75289e-08
3.59552e-08
6.90471e-07
3.32677e-08
3.32677e-08
7.03025e-07
1.19325e-16
3.19376e-08
7.09309e-07
-3.32677e-08
3.19376e-08
7.09309e-07
-6.75289e-08
3.32677e-08
7.03025e-07
-1.03606e-07
3.59552e-08
6.90471e-07
-1.41941e-07
3.99433e-08
6.71519e-07
4.50855e-08
6.45157e-07
-1.81653e-07
1.37631e-07
-1.91595e-16
6.55038e-07
-1.77655e-07
9.99379e-08
-3.9717e-16
6.79608e-07
6.49372e-08
-8.04862e-17
6.97434e-07
3.19376e-08
9.47461e-17
7.09309e-07
1.68338e-16
9.2531e-17
7.15268e-07
-3.19376e-08
-1.46113e-16
7.15268e-07
-6.49372e-08
-5.95409e-17
7.09309e-07
-9.99379e-08
-1.08332e-16
6.97434e-07
-1.37631e-07
1.66501e-16
6.79608e-07
3.3589e-16
6.55038e-07
-1.77655e-07
1.37631e-07
-4.50855e-08
6.55038e-07
-1.77655e-07
9.99379e-08
-3.99433e-08
6.79608e-07
6.49372e-08
-3.59552e-08
6.97434e-07
3.19376e-08
-3.32677e-08
7.09309e-07
-3.52605e-17
-3.19376e-08
7.15268e-07
-3.19376e-08
-3.19376e-08
7.15268e-07
-6.49372e-08
-3.32677e-08
7.09309e-07
-9.99379e-08
-3.59552e-08
6.97434e-07
-1.37631e-07
-3.99433e-08
6.79608e-07
-4.50855e-08
6.55038e-07
-1.77655e-07
1.41941e-07
-9.0818e-08
6.45157e-07
-1.81653e-07
1.03606e-07
-8.06308e-08
6.71519e-07
6.75289e-08
-7.27868e-08
6.90471e-07
3.32677e-08
-6.75289e-08
7.03025e-07
-2.65806e-16
-6.49372e-08
7.09309e-07
-3.32677e-08
-6.49372e-08
7.09309e-07
-6.75289e-08
-6.75289e-08
7.03025e-07
-1.03606e-07
-7.27868e-08
6.90471e-07
-1.41941e-07
-8.06308e-08
6.71519e-07
-9.08179e-08
6.45157e-07
-1.81653e-07
1.50898e-07
-1.37039e-07
6.25065e-07
-1.90311e-07
1.11097e-07
-1.22303e-07
6.55163e-07
7.27868e-08
-1.11097e-07
6.76494e-07
3.59552e-08
-1.03606e-07
6.90471e-07
-3.95251e-16
-9.99379e-08
6.97434e-07
-3.59552e-08
-9.99379e-08
6.97434e-07
-7.27868e-08
-1.03606e-07
6.90471e-07
-1.11097e-07
-1.11097e-07
6.76494e-07
-1.50898e-07
-1.22303e-07
6.55163e-07
-1.37039e-07
6.25065e-07
-1.90311e-07
1.64321e-07
-1.85116e-07
5.938e-07
-2.0066e-07
1.22303e-07
-1.64321e-07
6.29878e-07
8.06308e-08
-1.50898e-07
6.55163e-07
3.99433e-08
-1.41941e-07
6.71519e-07
4.59869e-17
-1.37631e-07
6.79608e-07
-3.99433e-08
-1.37631e-07
6.79608e-07
-8.06308e-08
-1.41941e-07
6.71519e-07
-1.22303e-07
-1.50898e-07
6.55163e-07
-1.64321e-07
-1.64321e-07
6.29878e-07
-1.85116e-07
5.938e-07
-2.0066e-07
1.85116e-07
5.49808e-07
-2.25011e-07
-2.25011e-07
1.37039e-07
5.938e-07
-2.0066e-07
9.0818e-08
6.25065e-07
-1.90311e-07
4.50855e-08
6.45157e-07
-1.81653e-07
5.88808e-16
6.55038e-07
-1.77655e-07
-4.50855e-08
6.55038e-07
-1.77655e-07
-9.08179e-08
6.45157e-07
-1.81653e-07
-1.37039e-07
6.25065e-07
-1.90311e-07
-1.85116e-07
5.938e-07
-2.0066e-07
5.49808e-07
-2.25011e-07
-2.25011e-07
1.29907e-07
1.29907e-07
5.86509e-07
-1.48257e-07
-1.48257e-07
1.02369e-07
1.27649e-07
6.42622e-07
-1.48933e-07
7.00028e-08
1.24144e-07
6.8126e-07
-1.47972e-07
3.53617e-08
1.20761e-07
7.05167e-07
-1.4613e-07
-6.30055e-16
1.18972e-07
7.16603e-07
-1.45175e-07
-3.53617e-08
1.18972e-07
7.16603e-07
-1.45175e-07
-7.00028e-08
1.20761e-07
7.05167e-07
-1.4613e-07
-1.02369e-07
1.24144e-07
6.8126e-07
-1.47972e-07
-1.29907e-07
1.27649e-07
6.42622e-07
-1.48933e-07
1.29907e-07
5.86509e-07
-1.48257e-07
-1.48257e-07
1.27649e-07
1.02369e-07
6.42622e-07
-1.48933e-07
9.85099e-08
9.85099e-08
6.88157e-07
6.63413e-08
9.41184e-08
7.17357e-07
3.32193e-08
9.05314e-08
7.34871e-07
-3.50796e-16
8.8657e-08
7.43143e-07
-3.32193e-08
8.8657e-08
7.43143e-07
-6.63413e-08
9.05314e-08
7.34871e-07
-9.85099e-08
9.41184e-08
7.17357e-07
-1.27649e-07
9.85099e-08
6.88157e-07
1.02369e-07
6.42622e-07
-1.48933e-07
1.24144e-07
7.00028e-08
6.8126e-07
-1.47972e-07
9.41184e-08
6.63413e-08
7.17357e-07
6.26014e-08
6.26014e-08
7.39528e-07
3.1146e-08
5.97731e-08
7.52685e-07
2.8911e-17
5.83213e-08
7.58916e-07
-3.1146e-08
5.83213e-08
7.58916e-07
-6.26014e-08
5.97731e-08
7.52685e-07
-9.41184e-08
6.26014e-08
7.39528e-07
-1.24144e-07
6.63413e-08
7.17357e-07
7.00028e-08
6.8126e-07
-1.47972e-07
1.20761e-07
3.53617e-08
7.05167e-07
-1.4613e-07
9.05314e-08
3.32193e-08
7.34871e-07
5.97731e-08
3.1146e-08
7.52685e-07
2.963e-08
2.963e-08
7.63311e-07
2.09082e-16
2.88596e-08
7.68401e-07
-2.963e-08
2.88596e-08
7.68401e-07
-5.97731e-08
2.963e-08
7.63311e-07
-9.05314e-08
3.1146e-08
7.52685e-07
-1.20761e-07
3.32193e-08
7.34871e-07
3.53617e-08
7.05167e-07
-1.4613e-07
1.18972e-07
-8.62806e-16
7.16603e-07
-1.45175e-07
8.8657e-08
-6.02482e-16
7.43143e-07
5.83213e-08
-4.50502e-17
7.58916e-07
2.88596e-08
2.39727e-17
7.68401e-07
3.67812e-16
7.17171e-17
7.72987e-07
-2.88596e-08
-4.60476e-16
7.72987e-07
-5.83213e-08
-2.8906e-16
7.68401e-07
-8.8657e-08
1.26066e-16
7.58916e-07
-1.18972e-07
3.59062e-16
7.43143e-07
4.48082e-16
7.16603e-07
-1.45175e-07
1.18972e-07
-3.53617e-08
7.16603e-07
-1.45175e-07
8.8657e-08
-3.32193e-08
7.43143e-07
5.83213e-08
-3.1146e-08
7.58916e-07
2.88596e-08
-2.963e-08
7.68401e-07
-5.1314e-17
-2.88596e-08
7.72987e-07
-2.88596e-08
-2.88596e-08
7.72987e-07
-5.83213e-08
-2.963e-08
7.68401e-07
-8.8657e-08
-3.1146e-08
7.58916e-07
-1.18972e-07
-3.32193e-08
7.43143e-07
-3.53617e-08
7.16603e-07
-1.45175e-07
1.20761e-07
-7.00028e-08
7.05167e-07
-1.4613e-07
9.05314e-08
-6.63413e-08
7.34871e-07
5.97731e-08
-6.26014e-08
7.52685e-07
2.963e-08
-5.97731e-08
7.63311e-07
-2.55472e-16
-5.83213e-08
7.68401e-07
-2.963e-08
-5.83213e-08
7.68401e-07
-5.97731e-08
-5.97731e-08
7.63311e-07
-9.05314e-08
-6.26014e-08
7.52685e-07
-1.20761e-07
-6.63413e-08
7.34871e-07
-7.00028e-08
7.05167e-07
-1.4613e-07
1.24144e-07
-1.02369e-07
6.8126e-07
-1.47972e-07
9.41184e-08
-9.85099e-08
7.17357e-07
6.26014e-08
-9.41184e-08
7.39528e-07
3.1146e-08
-9.05314e-08
7.52685e-07
-7.61395e-16
-8.8657e-08
7.58916e-07
-3.1146e-08
-8.8657e-08
7.58916e-07
-6.26014e-08
-9.05314e-08
7.52685e-07
-9.41184e-08
-9.41184e-08
7.39528e-07
-1.24144e-07
-9.85099e-08
7.17357e-07
-1.02369e-07
6.8126e-07
-1.47972e-07
1.27649e-07
-1.29907e-07
6.42622e-07
-1.48933e-07
9.85099e-08
-1.27649e-07
6.88157e-07
6.63413e-08
-1.24144e-07
7.17357e-07
3.32193e-08
-1.20761e-07
7.34871e-07
-3.9414e-16
-1.18972e-07
7.43143e-07
-3.32193e-08
-1.18972e-07
7.43143e-07
-6.63413e-08
-1.20761e-07
7.34871e-07
-9.85099e-08
-1.24144e-07
7.17357e-07
-1.27649e-07
-1.27649e-07
6.88157e-07
-1.29907e-07
6.42622e-07
-1.48933e-07
1.29907e-07
5.86509e-07
-1.48257e-07
-1.48257e-07
1.02369e-07
6.42622e-07
-1.48933e-07
7.00028e-08
6.8126e-07
-1.47972e-07
3.53617e-08
7.05167e-07
-1.4613e-07
1.04439e-15
7.16603e-07
-1.45175e-07
-3.53617e-08
7.16603e-07
-1.45175e-07
-7.00028e-08
7.05167e-07
-1.4613e-07
-1.02369e-07
6.8126e-07
-1.47972e-07
-1.29907e-07
6.42622e-07
-1.48933e-07
5.86509e-07
-1.48257e-07
-1.48257e-07
9.89588e-08
9.89588e-08
5.96641e-07
-1.04025e-07
-1.04025e-07
8.30029e-08
1.04508e-07
6.65676e-07
-1.11606e-07
5.91339e-08
1.06693e-07
7.13804e-07
-1.15368e-07
3.06204e-08
1.07013e-07
7.43675e-07
-1.17007e-07
1.81397e-16
1.06942e-07
7.57924e-07
-1.17642e-07
-3.06204e-08
1.06942e-07
7.57924e-07
-1.17642e-07
-5.91339e-08
1.07013e-07
7.43675e-07
-1.17007e-07
-8.30029e-08
1.06693e-07
7.13804e-07
-1.15368e-07
-9.89588e-08
1.04508e-07
6.65676e-07
-1.11606e-07
9.89588e-08
5.96641e-07
-1.04025e-07
-1.04025e-07
1.04508e-07
8.30029e-08
6.65676e-07
-1.11606e-07
8.60897e-08
8.60897e-08
7.24994e-07
6.06257e-08
8.67066e-08
7.62808e-07
3.11734e-08
8.62164e-08
7.85119e-07
2.57055e-16
8.5767e-08
7.95491e-07
-3.11734e-08
8.5767e-08
7.95491e-07
-6.06256e-08
8.62164e-08
7.85119e-07
-8.60897e-08
8.67066e-08
7.62808e-07
-1.04508e-07
8.60897e-08
7.24994e-07
8.30029e-08
6.65676e-07
-1.11606e-07
1.06693e-07
5.91339e-08
7.13804e-07
-1.15368e-07
8.67066e-08
6.06257e-08
7.62808e-07
6.0475e-08
6.0475e-08
7.91992e-07
3.09399e-08
5.97948e-08
8.08642e-07
-8.61934e-17
5.93191e-08
8.16303e-07
-3.09399e-08
5.93191e-08
8.16303e-07
-6.0475e-08
5.97948e-08
8.08642e-07
-8.67066e-08
6.0475e-08
7.91992e-07
-1.06693e-07
6.06257e-08
7.62808e-07
5.91339e-08
7.13804e-07
-1.15368e-07
1.07013e-07
3.06204e-08
7.43675e-07
-1.17007e-07
8.62164e-08
3.11734e-08
7.85119e-07
5.97948e-08
3.09399e-08
8.08642e-07
3.05084e-08
3.05084e-08
8.21884e-07
6.25019e-17
3.02273e-08
8.28001e-07
-3.05084e-08
3.02273e-08
8.28001e-07
-5.97948e-08
3.05084e-08
8.21884e-07
-8.62164e-08
3.09399e-08
8.08642e-07
-1.07013e-07
3.11734e-08
7.85119e-07
3.06204e-08
7.43675e-07
-1.17007e-07
1.06942e-07
-3.06106e-16
7.57924e-07
-1.17642e-07
8.5767e-08
7.79963e-17
7.95491e-07
5.93191e-08
-9.8448e-17
8.16303e-07
3.02273e-08
-1.875e-16
8.28001e-07
4.54359e-16
4.76643e-17
8.33442e-07
-3.02273e-08
1.9327e-17
8.33442e-07
-5.93191e-08
9.58277e-17
8.28001e-07
-8.5767e-08
8.67149e-17
8.16303e-07
-1.06942e-07
-2.64058e-16
7.95491e-07
-2.84471e-16
7.57924e-07
-1.17642e-07
1.06942e-07
-3.06204e-08
7.57924e-07
-1.17642e-07
8.5767e-08
-3.11734e-08
7.95491e-07
5.93191e-08
-3.09399e-08
8.16303e-07
3.02273e-08
-3.05084e-08
8.28001e-07
4.18041e-16
-3.02273e-08
8.33442e-07
-3.02273e-08
-3.02273e-08
8.33442e-07
-5.93191e-08
-3.05084e-08
8.28001e-07
-8.5767e-08
-3.09399e-08
8.16303e-07
-1.06942e-07
-3.11734e-08
7.95491e-07
-3.06204e-08
7.57924e-07
-1.17642e-07
1.07013e-07
-5.91339e-08
7.43675e-07
-1.17007e-07
8.62165e-08
-6.06256e-08
7.85119e-07
5.97948e-08
-6.0475e-08
8.08642e-07
3.05084e-08
-5.97948e-08
8.21884e-07
3.29098e-16
-5.93191e-08
8.28001e-07
-3.05084e-08
-5.93191e-08
8.28001e-07
-5.97948e-08
-5.97948e-08
8.21884e-07
-8.62164e-08
-6.0475e-08
8.08642e-07
-1.07013e-07
-6.06257e-08
7.85119e-07
-5.91339e-08
7.43675e-07
-1.17007e-07
1.06693e-07
-8.30029e-08
7.13804e-07
-1.15368e-07
8.67066e-08
-8.60897e-08
7.62808e-07
6.0475e-08
-8.67066e-08
7.91992e-07
3.09399e-08
-8.62164e-08
8.08642e-07
-7.14403e-16
-8.5767e-08
8.16303e-07
-3.09399e-08
-8.5767e-08
8.16303e-07
-6.0475e-08
-8.62164e-08
8.08642e-07
-8.67066e-08
-8.67066e-08
7.91992e-07
-1.06693e-07
-8.60897e-08
7.62808e-07
-8.30029e-08
7.13804e-07
-1.15368e-07
1.04508e-07
-9.89588e-08
6.65676e-07
-1.11606e-07
8.60897e-08
-1.04508e-07
7.24994e-07
6.06257e-08
-1.06693e-07
7.62808e-07
3.11734e-08
-1.07013e-07
7.85119e-07
-1.33304e-15
-1.06942e-07
7.95491e-07
-3.11734e-08
-1.06942e-07
7.95491e-07
-6.06257e-08
-1.07013e-07
7.85119e-07
-8.60897e-08
-1.06693e-07
7.62808e-07
-1.04508e-07
-1.04508e-07
7.24994e-07
-9.89588e-08
6.65676e-07
-1.11606e-07
9.89588e-08
5.96641e-07
-1.04025e-07
-1.04025e-07
8.30029e-08
6.65676e-07
-1.11606e-07
5.91339e-08
7.13804e-07
-1.15368e-07
3.06204e-08
7.43675e-07
-1.17007e-07
1.51707e-17
7.57924e-07
-1.17642e-07
-3.06204e-08
7.57924e-07
-1.17642e-07
-5.91339e-08
7.43675e-07
-1.17007e-07
-8.30029e-08
7.13804e-07
-1.15368e-07
-9.89588e-08
6.65676e-07
-1.11606e-07
5.96641e-07
-1.04025e-07
-1.04025e-07
4.87503e-08
4.87503e-08
5.95937e-07
-4.83984e-08
-4.83984e-08
4.30791e-08
5.55643e-08
6.71299e-07
-5.55164e-08
3.1803e-08
5.9788e-08
7.25022e-07
-5.97296e-08
1.68413e-08
6.20951e-08
7.58867e-07
-6.23263e-08
5.45093e-17
6.31081e-08
7.75141e-07
-6.34838e-08
-1.68413e-08
6.31081e-08
7.75141e-07
-6.34838e-08
-3.1803e-08
6.20951e-08
7.58867e-07
-6.23263e-08
-4.30791e-08
5.9788e-08
7.25022e-07
-5.97296e-08
-4.87503e-08
5.55643e-08
6.71299e-07
-5.55164e-08
4.87503e-08
5.95937e-07
-4.83984e-08
-4.83984e-08
5.55643e-08
4.30791e-08
6.71299e-07
-5.55164e-08
4.83807e-08
4.83807e-08
7.39361e-07
3.54364e-08
5.16528e-08
7.83887e-07
1.86622e-08
5.33705e-08
8.10618e-07
8.05333e-16
5.40998e-08
8.23161e-07
-1.86622e-08
5.40998e-08
8.23161e-07
-3.54364e-08
5.33705e-08
8.10618e-07
-4.83807e-08
5.16528e-08
7.83887e-07
-5.55643e-08
4.83807e-08
7.39361e-07
4.30791e-08
6.71299e-07
-5.55164e-08
5.9788e-08
3.1803e-08
7.25022e-07
-5.97296e-08
5.16528e-08
3.54364e-08
7.83887e-07
3.7601e-08
3.7601e-08
8.20095e-07
1.97326e-08
3.87114e-08
8.41169e-07
3.90245e-16
3.91707e-08
8.50965e-07
-1.97326e-08
3.91707e-08
8.50965e-07
-3.7601e-08
3.87114e-08
8.41169e-07
-5.16528e-08
3.7601e-08
8.20095e-07
-5.9788e-08
3.54364e-08
7.83887e-07
3.1803e-08
7.25022e-07
-5.97296e-08
6.20951e-08
1.68413e-08
7.58867e-07
-6.23263e-08
5.33705e-08
1.86622e-08
8.10618e-07
3.87114e-08
1.97326e-08
8.41169e-07
2.02785e-08
2.02785e-08
8.5875e-07
5.6123e-16
2.05015e-08
8.66949e-07
-2.02785e-08
2.05015e-08
8.66949e-07
-3.87114e-08
2.02785e-08
8.5875e-07
-5.33705e-08
1.97326e-08
8.41169e-07
-6.20951e-08
1.86622e-08
8.10618e-07
1.68413e-08
7.58867e-07
-6.23263e-08
6.31081e-08
-3.96572e-16
7.75141e-07
-6.34838e-08
5.40998e-08
7.63329e-16
8.23161e-07
3.91707e-08
5.2631e-16
8.50965e-07
2.05015e-08
5.06717e-16
8.66949e-07
7.45457e-16
6.30761e-16
8.74445e-07
-2.05015e-08
5.22547e-16
8.74445e-07
-3.91707e-08
3.6389e-16
8.66949e-07
-5.40998e-08
2.52691e-16
8.50965e-07
-6.31081e-08
-4.77579e-16
8.23161e-07
-4.06062e-16
7.75141e-07
-6.34838e-08
6.31081e-08
-1.68413e-08
7.75141e-07
-6.34838e-08
5.40998e-08
-1.86622e-08
8.23161e-07
3.91707e-08
-1.97326e-08
8.50965e-07
2.05015e-08
-2.02785e-08
8.66949e-07
5.89913e-16
-2.05015e-08
8.74445e-07
-2.05015e-08
-2.05015e-08
8.74445e-07
-3.91707e-08
-2.02785e-08
8.66949e-07
-5.40998e-08
-1.97326e-08
8.50965e-07
-6.31081e-08
-1.86622e-08
8.23161e-07
-1.68413e-08
7.75141e-07
-6.34838e-08
6.20951e-08
-3.1803e-08
7.58867e-07
-6.23263e-08
5.33705e-08
-3.54364e-08
8.10618e-07
3.87114e-08
-3.7601e-08
8.41169e-07
2.02785e-08
-3.87114e-08
8.5875e-07
3.20184e-16
-3.91707e-08
8.66949e-07
-2.02785e-08
-3.91707e-08
8.66949e-07
-3.87114e-08
-3.87114e-08
8.5875e-07
-5.33705e-08
-3.7601e-08
8.41169e-07
-6.20951e-08
-3.54364e-08
8.10618e-07
-3.1803e-08
7.58867e-07
-6.23263e-08
5.9788e-08
-4.30791e-08
7.25022e-07
-5.97296e-08
5.16528e-08
-4.83807e-08
7.83887e-07
3.7601e-08
-5.16528e-08
8.20095e-07
1.97326e-08
-5.33705e-08
8.41169e-07
-5.22737e-16
-5.40998e-08
8.50965e-07
-1.97326e-08
-5.40998e-08
8.50965e-07
-3.7601e-08
-5.33705e-08
8.41169e-07
-5.16528e-08
-5.16528e-08
8.20095e-07
-5.9788e-08
-4.83807e-08
7.83887e-07
-4.30791e-08
7.25022e-07
-5.97296e-08
5.55643e-08
-4.87503e-08
6.71299e-07
-5.55164e-08
4.83807e-08
-5.55643e-08
7.39361e-07
3.54364e-08
-5.9788e-08
7.83887e-07
1.86622e-08
-6.20951e-08
8.10618e-07
-1.39297e-15
-6.31081e-08
8.23161e-07
-1.86622e-08
-6.31081e-08
8.23161e-07
-3.54364e-08
-6.20951e-08
8.10618e-07
-4.83807e-08
-5.9788e-08
7.83887e-07
-5.55643e-08
-5.55643e-08
7.39361e-07
-4.87503e-08
6.71299e-07
-5.55164e-08
4.87503e-08
5.95937e-07
-4.83984e-08
-4.83984e-08
4.30791e-08
6.71299e-07
-5.55164e-08
3.1803e-08
7.25022e-07
-5.97296e-08
1.68413e-08
7.58867e-07
-6.23263e-08
-3.65518e-16
7.75141e-07
-6.34838e-08
-1.68413e-08
7.75141e-07
-6.34838e-08
-3.1803e-08
7.58867e-07
-6.23263e-08
-4.30791e-08
7.25022e-07
-5.97296e-08
-4.87503e-08
6.71299e-07
-5.55164e-08
5.95937e-07
-4.83984e-08
-4.83984e-08
2.39621e-08
2.39621e-08
5.93412e-07
-2.26995e-08
-2.26995e-08
2.18476e-08
2.83339e-08
6.71742e-07
-2.66624e-08
1.65274e-08
3.14168e-08
7.28343e-07
-2.94177e-08
8.88491e-09
3.3324e-08
7.64396e-07
-3.12101e-08
4.59594e-16
3.42153e-08
7.81849e-07
-3.20383e-08
-8.88491e-09
3.42153e-08
7.81849e-07
-3.20383e-08
-1.65274e-08
3.3324e-08
7.64396e-07
-3.12101e-08
-2.18476e-08
3.14168e-08
7.28343e-07
-2.94177e-08
-2.39621e-08
2.83339e-08
6.71742e-07
-2.66624e-08
2.39621e-08
5.93412e-07
-2.26995e-08
-2.26995e-08
2.83339e-08
2.18476e-08
6.71742e-07
-2.66624e-08
2.57382e-08
2.57382e-08
7.44553e-07
1.94151e-08
2.84779e-08
7.93149e-07
1.04082e-08
3.0132e-08
8.22817e-07
4.08242e-16
3.08991e-08
8.36886e-07
-1.04082e-08
3.08991e-08
8.36886e-07
-1.94151e-08
3.0132e-08
8.22817e-07
-2.57382e-08
2.84779e-08
7.93149e-07
-2.83339e-08
2.57382e-08
7.44553e-07
2.18476e-08
6.71742e-07
-2.66624e-08
3.14168e-08
1.65274e-08
7.28343e-07
-2.94177e-08
2.84779e-08
1.94151e-08
7.93149e-07
2.14256e-08
2.14256e-08
8.342e-07
1.14618e-08
2.2621e-08
8.58644e-07
7.30087e-17
2.31683e-08
8.70158e-07
-1.14618e-08
2.31683e-08
8.70158e-07
-2.14256e-08
2.2621e-08
8.58644e-07
-2.84779e-08
2.14256e-08
8.342e-07
-3.14168e-08
1.94151e-08
7.93149e-07
1.65274e-08
7.28343e-07
-2.94177e-08
3.3324e-08
8.88491e-09
7.64396e-07
-3.12101e-08
3.0132e-08
1.04082e-08
8.22817e-07
2.2621e-08
1.14618e-08
8.58644e-07
1.2085e-08
1.2085e-08
8.79822e-07
2.84126e-16
1.23681e-08
8.89834e-07
-1.2085e-08
1.23681e-08
8.89834e-07
-2.2621e-08
1.2085e-08
8.79822e-07
-3.0132e-08
1.14618e-08
8.58644e-07
-3.3324e-08
1.04082e-08
8.22817e-07
8.88491e-09
7.64396e-07
-3.12101e-08
3.42153e-08
2.39849e-16
7.81849e-07
-3.20383e-08
3.08991e-08
8.49102e-16
8.36886e-07
2.31683e-08
7.49575e-16
8.70158e-07
1.23681e-08
7.18302e-16
8.89834e-07
4.54452e-16
6.73117e-16
8.99181e-07
-1.23681e-08
8.89026e-16
8.99181e-07
-2.31683e-08
9.68571e-16
8.89834e-07
-3.08991e-08
7.64879e-16
8.70158e-07
-3.42153e-08
-1.18948e-16
8.36886e-07
-6.39738e-16
7.81849e-07
-3.20383e-08
3.42153e-08
-8.88491e-09
7.81849e-07
-3.20383e-08
3.08991e-08
-1.04082e-08
8.36886e-07
2.31683e-08
-1.14618e-08
8.70158e-07
1.23681e-08
-1.2085e-08
8.89834e-07
5.91385e-16
-1.23681e-08
8.99181e-07
-1.23681e-08
-1.23681e-08
8.99181e-07
-2.31683e-08
-1.2085e-08
8.89834e-07
-3.08991e-08
-1.14618e-08
8.70158e-07
-3.42153e-08
-1.04082e-08
8.36886e-07
-8.88491e-09
7.81849e-07
-3.20383e-08
3.3324e-08
-1.65274e-08
7.64396e-07
-3.12101e-08
3.0132e-08
-1.94151e-08
8.22817e-07
2.2621e-08
-2.14256e-08
8.58644e-07
1.2085e-08
-2.2621e-08
8.79822e-07
6.86156e-16
-2.31683e-08
8.89834e-07
-1.2085e-08
-2.31683e-08
8.89834e-07
-2.2621e-08
-2.2621e-08
8.79822e-07
-3.0132e-08
-2.14256e-08
8.58644e-07
-3.3324e-08
-1.94151e-08
8.22817e-07
-1.65274e-08
7.64396e-07
-3.12101e-08
3.14168e-08
-2.18476e-08
7.28343e-07
-2.94177e-08
2.84779e-08
-2.57382e-08
7.93149e-07
2.14256e-08
-2.84779e-08
8.342e-07
1.14618e-08
-3.0132e-08
8.58644e-07
4.87835e-17
-3.08991e-08
8.70158e-07
-1.14618e-08
-3.08991e-08
8.70158e-07
-2.14256e-08
-3.0132e-08
8.58644e-07
-2.84779e-08
-2.84779e-08
8.342e-07
-3.14168e-08
-2.57382e-08
7.93149e-07
-2.18476e-08
7.28343e-07
-2.94177e-08
2.83339e-08
-2.39621e-08
6.71742e-07
-2.66624e-08
2.57382e-08
-2.83339e-08
7.44553e-07
1.94151e-08
-3.14168e-08
7.93149e-07
1.04082e-08
-3.3324e-08
8.22817e-07
-1.01207e-15
-3.42153e-08
8.36886e-07
-1.04082e-08
-3.42153e-08
8.36886e-07
-1.94151e-08
-3.3324e-08
8.22817e-07
-2.57382e-08
-3.14168e-08
7.93149e-07
-2.83339e-08
-2.83339e-08
7.44553e-07
-2.39621e-08
6.71742e-07
-2.66624e-08
2.39621e-08
5.93412e-07
-2.26995e-08
-2.26995e-08
2.18476e-08
6.71742e-07
-2.66624e-08
1.65274e-08
7.28343e-07
-2.94177e-08
8.88491e-09
7.64396e-07
-3.12101e-08
-7.98553e-16
7.81849e-07
-3.20383e-08
-8.88491e-09
7.81849e-07
-3.20383e-08
-1.65274e-08
7.64396e-07
-3.12101e-08
-2.18476e-08
7.28343e-07
-2.94177e-08
-2.39621e-08
6.71742e-07
-2.66624e-08
5.93412e-07
-2.26995e-08
-2.26995e-08
9.53415e-09
9.53415e-09
5.91162e-07
-8.40937e-09
-8.40937e-09
9.18235e-09
1.20872e-08
6.70459e-07
-1.04519e-08
7.21824e-09
1.40715e-08
7.2825e-07
-1.20149e-08
3.97047e-09
1.54039e-08
7.65344e-07
-1.31036e-08
2.95495e-16
1.60551e-08
7.83391e-07
-1.36267e-08
-3.97047e-09
1.60551e-08
7.83391e-07
-1.36267e-08
-7.21824e-09
1.54039e-08
7.65344e-07
-1.31036e-08
-9.18235e-09
1.40715e-08
7.2825e-07
-1.20149e-08
-9.53415e-09
1.20872e-08
6.70459e-07
-1.04519e-08
9.53415e-09
5.91162e-07
-8.40937e-09
-8.40937e-09
1.20872e-08
9.18235e-09
6.70459e-07
-1.04519e-08
1.16777e-08
1.16777e-08
7.45372e-07
9.18078e-09
1.3614e-08
7.96104e-07
5.04136e-09
1.48829e-08
8.27478e-07
1.01347e-15
1.55e-08
8.42482e-07
-5.04135e-09
1.55e-08
8.42482e-07
-9.18077e-09
1.48829e-08
8.27478e-07
-1.16777e-08
1.3614e-08
7.96104e-07
-1.20872e-08
1.16777e-08
7.45372e-07
9.18235e-09
6.70459e-07
-1.04519e-08
1.40715e-08
7.21824e-09
7.2825e-07
-1.20149e-08
1.3614e-08
9.18078e-09
7.96104e-07
1.06883e-08
1.06883e-08
8.40051e-07
5.85687e-09
1.16587e-08
8.667e-07
8.56243e-16
1.21251e-08
8.79389e-07
-5.85687e-09
1.21251e-08
8.79389e-07
-1.06883e-08
1.16587e-08
8.667e-07
-1.3614e-08
1.06883e-08
8.40051e-07
-1.40715e-08
9.18077e-09
7.96104e-07
7.21824e-09
7.2825e-07
-1.20149e-08
1.54039e-08
3.97047e-09
7.65344e-07
-1.31036e-08
1.48829e-08
5.04136e-09
8.27478e-07
1.16587e-08
5.85687e-09
8.667e-07
6.37716e-09
6.37716e-09
8.90385e-07
7.53058e-16
6.62528e-09
9.01711e-07
-6.37716e-09
6.62528e-09
9.01711e-07
-1.16587e-08
6.37716e-09
8.90385e-07
-1.48829e-08
5.85687e-09
8.667e-07
-1.54039e-08
5.04135e-09
8.27478e-07
3.97047e-09
7.65344e-07
-1.31036e-08
1.60551e-08
-5.26402e-17
7.83391e-07
-1.36267e-08
1.55e-08
7.36408e-16
8.42482e-07
1.21251e-08
7.47296e-16
8.79389e-07
6.62528e-09
8.83559e-16
9.01711e-07
6.37528e-16
8.40764e-16
9.12431e-07
-6.62528e-09
7.70892e-16
9.12431e-07
-1.21251e-08
7.39216e-16
9.01711e-07
-1.55e-08
6.6419e-16
8.79389e-07
-1.60551e-08
2.89765e-16
8.42482e-07
1.30588e-16
7.83391e-07
-1.36267e-08
1.60551e-08
-3.97047e-09
7.83391e-07
-1.36267e-08
1.55e-08
-5.04135e-09
8.42482e-07
1.21251e-08
-5.85687e-09
8.79389e-07
6.62528e-09
-6.37716e-09
9.01711e-07
5.63909e-16
-6.62528e-09
9.12431e-07
-6.62528e-09
-6.62528e-09
9.12431e-07
-1.21251e-08
-6.37716e-09
9.01711e-07
-1.55e-08
-5.85687e-09
8.79389e-07
-1.60551e-08
-5.04135e-09
8.42482e-07
-3.97047e-09
7.83391e-07
-1.36267e-08
1.54039e-08
-7.21824e-09
7.65344e-07
-1.31036e-08
1.48829e-08
-9.18077e-09
8.27478e-07
1.16587e-08
-1.06883e-08
8.667e-07
6.37716e-09
-1.16587e-08
8.90385e-07
5.96117e-16
-1.21251e-08
9.01711e-07
-6.37716e-09
-1.21251e-08
9.01711e-07
-1.16587e-08
-1.16587e-08
8.90385e-07
-1.48829e-08
-1.06883e-08
8.667e-07
-1.54039e-08
-9.18077e-09
8.27478e-07
-7.21824e-09
7.65344e-07
-1.31036e-08
1.40715e-08
-9.18235e-09
7.2825e-07
-1.20149e-08
1.3614e-08
-1.16777e-08
7.96104e-07
1.06883e-08
-1.3614e-08
8.40051e-07
5.85687e-09
-1.48829e-08
8.667e-07
3.05635e-16
-1.55e-08
8.79389e-07
-5.85687e-09
-1.55e-08
8.79389e-07
-1.06883e-08
-1.48829e-08
8.667e-07
-1.3614e-08
-1.3614e-08
8.40051e-07
-1.40715e-08
-1.16777e-08
7.96104e-07
-9.18235e-09
7.2825e-07
-1.20149e-08
1.20872e-08
-9.53415e-09
6.70459e-07
-1.04519e-08
1.16777e-08
-1.20872e-08
7.45372e-07
9.18077e-09
-1.40715e-08
7.96104e-07
5.04135e-09
-1.54039e-08
8.27478e-07
-4.14255e-16
-1.60551e-08
8.42482e-07
-5.04136e-09
-1.60551e-08
8.42482e-07
-9.18078e-09
-1.54039e-08
8.27478e-07
-1.16777e-08
-1.40715e-08
7.96104e-07
-1.20872e-08
-1.20872e-08
7.45372e-07
-9.53415e-09
6.70459e-07
-1.04519e-08
9.53415e-09
5.91162e-07
-8.40937e-09
-8.40937e-09
9.18235e-09
6.70459e-07
-1.04519e-08
7.21824e-09
7.2825e-07
-1.20149e-08
3.97047e-09
7.65344e-07
-1.31036e-08
-2.93052e-16
7.83391e-07
-1.36267e-08
-3.97047e-09
7.83391e-07
-1.36267e-08
-7.21824e-09
7.65344e-07
-1.31036e-08
-9.18235e-09
7.2825e-07
-1.20149e-08
-9.53415e-09
6.70459e-07
-1.04519e-08
5.91162e-07
-8.40937e-09
-8.40937e-09
3.14436e-09
3.14436e-09
5.89951e-07
-2.53888e-09
-2.53888e-09
3.23112e-09
4.33477e-09
6.69419e-07
-3.38202e-09
2.65241e-09
5.3436e-09
7.2757e-07
-4.08519e-09
1.49651e-09
6.06766e-09
7.65042e-07
-4.60967e-09
2.98559e-16
6.43358e-09
7.83323e-07
-4.86927e-09
-1.49651e-09
6.43358e-09
7.83323e-07
-4.86927e-09
-2.65241e-09
6.06766e-09
7.65042e-07
-4.60967e-09
-3.23112e-09
5.3436e-09
7.2757e-07
-4.08519e-09
-3.14436e-09
4.33477e-09
6.69419e-07
-3.38202e-09
3.14436e-09
5.89951e-07
-2.53888e-09
-2.53888e-09
4.33478e-09
3.23112e-09
6.69419e-07
-3.38202e-09
4.49692e-09
4.49692e-09
7.45047e-07
3.70168e-09
5.56419e-09
7.96678e-07
2.08612e-09
6.30937e-09
8.28851e-07
4.54437e-16
6.68409e-09
8.44318e-07
-2.08612e-09
6.68409e-09
8.44318e-07
-3.70168e-09
6.30937e-09
8.28851e-07
-4.49692e-09
5.56419e-09
7.96678e-07
-4.33477e-09
4.49692e-09
7.45047e-07
3.23112e-09
6.69419e-07
-3.38202e-09
5.3436e-09
2.65241e-09
7.2757e-07
-4.08519e-09
5.56419e-09
3.70168e-09
7.96678e-07
4.57396e-09
4.57396e-09
8.42032e-07
2.57048e-09
5.17035e-09
8.69842e-07
3.96174e-16
5.46676e-09
8.83177e-07
-2.57048e-09
5.46676e-09
8.83177e-07
-4.57396e-09
5.17035e-09
8.69842e-07
-5.56419e-09
4.57396e-09
8.42032e-07
-5.3436e-09
3.70168e-09
7.96678e-07
2.65241e-09
7.2757e-07
-4.08519e-09
6.06766e-09
1.49651e-09
7.65042e-07
-4.60967e-09
6.30937e-09
2.08612e-09
8.28851e-07
5.17035e-09
2.57048e-09
8.69842e-07
2.89781e-09
2.89781e-09
8.9493e-07
5.13027e-16
3.05921e-09
9.07016e-07
-2.89781e-09
3.05921e-09
9.07016e-07
-5.17035e-09
2.89781e-09
8.9493e-07
-6.30937e-09
2.57048e-09
8.69842e-07
-6.06766e-09
2.08612e-09
8.28851e-07
1.49651e-09
7.65042e-07
-4.60967e-09
6.43358e-09
-1.28791e-16
7.83323e-07
-4.86927e-09
6.68409e-09
-1.30324e-17
8.44318e-07
5.46676e-09
3.52074e-16
8.83177e-07
3.05921e-09
7.23871e-16
9.07016e-07
4.35467e-16
7.25119e-16
9.1855e-07
-3.0592e-09
6.26864e-16
9.1855e-07
-5.46676e-09
6.81853e-16
9.07016e-07
-6.68409e-09
5.00475e-16
8.83177e-07
-6.43358e-09
3.28076e-16
8.44318e-07
3.42656e-16
7.83323e-07
-4.86927e-09
6.43358e-09
-1.49651e-09
7.83323e-07
-4.86927e-09
6.68409e-09
-2.08612e-09
8.44318e-07
5.46676e-09
-2.57048e-09
8.83177e-07
3.05921e-09
-2.89781e-09
9.07016e-07
3.21375e-16
-3.0592e-09
9.1855e-07
-3.0592e-09
-3.0592e-09
9.1855e-07
-5.46676e-09
-2.89781e-09
9.07016e-07
-6.68409e-09
-2.57048e-09
8.83177e-07
-6.43358e-09
-2.08612e-09
8.44318e-07
-1.49651e-09
7.83323e-07
-4.86927e-09
6.06766e-09
-2.65241e-09
7.65042e-07
-4.60967e-09
6.30937e-09
-3.70168e-09
8.28851e-07
5.17035e-09
-4.57396e-09
8.69842e-07
2.89781e-09
-5.17035e-09
8.9493e-07
3.53502e-16
-5.46676e-09
9.07016e-07
-2.89781e-09
-5.46676e-09
9.07016e-07
-5.17035e-09
-5.17035e-09
8.9493e-07
-6.30937e-09
-4.57396e-09
8.69842e-07
-6.06766e-09
-3.70168e-09
8.28851e-07
-2.65241e-09
7.65042e-07
-4.60967e-09
5.3436e-09
-3.23112e-09
7.2757e-07
-4.08518e-09
5.56419e-09
-4.49693e-09
7.96678e-07
4.57396e-09
-5.56419e-09
8.42032e-07
2.57048e-09
-6.30937e-09
8.69842e-07
9.00261e-17
-6.68409e-09
8.83177e-07
-2.57048e-09
-6.68409e-09
8.83177e-07
-4.57396e-09
-6.30937e-09
8.69842e-07
-5.56419e-09
-5.56419e-09
8.42032e-07
-5.3436e-09
-4.49692e-09
7.96678e-07
-3.23112e-09
7.2757e-07
-4.08518e-09
4.33477e-09
-3.14436e-09
6.69419e-07
-3.38202e-09
4.49692e-09
-4.33478e-09
7.45047e-07
3.70168e-09
-5.3436e-09
7.96678e-07
2.08612e-09
-6.06766e-09
8.28851e-07
-4.35678e-16
-6.43358e-09
8.44318e-07
-2.08612e-09
-6.43358e-09
8.44318e-07
-3.70168e-09
-6.06766e-09
8.28851e-07
-4.49692e-09
-5.3436e-09
7.96678e-07
-4.33477e-09
-4.33477e-09
7.45047e-07
-3.14436e-09
6.69419e-07
-3.38202e-09
3.14436e-09
5.89951e-07
-2.53888e-09
-2.53888e-09
3.23112e-09
6.69419e-07
-3.38202e-09
2.65241e-09
7.2757e-07
-4.08519e-09
1.49651e-09
7.65042e-07
-4.60967e-09
-3.97138e-16
7.83323e-07
-4.86927e-09
-1.49651e-09
7.83323e-07
-4.86927e-09
-2.65241e-09
7.65042e-07
-4.60967e-09
-3.23112e-09
7.2757e-07
-4.08518e-09
-3.14436e-09
6.69419e-07
-3.38202e-09
5.89951e-07
-2.53888e-09
-2.53888e-09
8.75183e-10
8.75183e-10
5.89412e-07
-6.05483e-10
-6.05483e-10
9.86452e-10
1.35294e-09
6.68864e-07
-9.0873e-10
8.56953e-10
1.78618e-09
7.27097e-07
-1.18317e-09
4.9867e-10
2.11306e-09
7.64684e-07
-1.39737e-09
3.68185e-16
2.28225e-09
7.83046e-07
-1.50608e-09
-4.98669e-10
2.28225e-09
7.83046e-07
-1.50608e-09
-8.56953e-10
2.11306e-09
7.64684e-07
-1.39737e-09
-9.86452e-10
1.78618e-09
7.27097e-07
-1.18317e-09
-8.75182e-10
1.35294e-09
6.68864e-07
-9.08729e-10
8.75183e-10
5.89412e-07
-6.05483e-10
-6.05483e-10
1.35294e-09
9.86452e-10
6.68864e-07
-9.0873e-10
1.53188e-09
1.53188e-09
7.44689e-07
1.32758e-09
2.02068e-09
7.96648e-07
7.69127e-10
2.37828e-09
8.29145e-07
6.9498e-16
2.56236e-09
8.44807e-07
-7.69125e-10
2.56236e-09
8.44807e-07
-1.32757e-09
2.37828e-09
8.29145e-07
-1.53188e-09
2.02068e-09
7.96648e-07
-1.35294e-09
1.53188e-09
7.44689e-07
9.86452e-10
6.68864e-07
-9.08729e-10
1.78618e-09
8.56953e-10
7.27097e-07
-1.18317e-09
2.02068e-09
1.32758e-09
7.96648e-07
1.74261e-09
1.74261e-09
8.42588e-07
1.00433e-09
2.03929e-09
8.70919e-07
5.5396e-16
2.19019e-09
8.84554e-07
-1.00433e-09
2.19019e-09
8.84554e-07
-1.74261e-09
2.03929e-09
8.70919e-07
-2.02068e-09
1.74261e-09
8.42588e-07
-1.78618e-09
1.32758e-09
7.96648e-07
8.56954e-10
7.27097e-07
-1.18317e-09
2.11306e-09
4.9867e-10
7.64684e-07
-1.39737e-09
2.37828e-09
7.69127e-10
8.29145e-07
2.03929e-09
1.00433e-09
8.70919e-07
1.1703e-09
1.1703e-09
8.96668e-07
4.45193e-16
1.25403e-09
9.09123e-07
-1.1703e-09
1.25403e-09
9.09123e-07
-2.03929e-09
1.1703e-09
8.96668e-07
-2.37828e-09
1.00433e-09
8.70919e-07