/*--------------------------------*- C++ -*----------------------------------*\
| =========                 |                                                 |
| \\      /  F ield         | OpenFOAM: The Open Source CFD Toolbox           |
|  \\    /   O peration     | Version:  2412                                  |
|   \\  /    A nd           | Website:  www.openfoam.com                      |
|    \\/     M anipulation  |                                                 |
\*---------------------------------------------------------------------------*/
FoamFile
{
    version     2.0;
    format      ascii;
    arch        "LSB;label=32;scalar=64";
    class       surfaceScalarField;
    location    "6.6";
    object      phi;
}
// * * * * * * * * * * * * * * * * * * * * * * * * * * * * * * * * * * * * * //

dimensions      [0 3 -1 0 0 0 0];

oriented        oriented;

internalField   nonuniform List<scalar> 
43700
(
1.86357e-07
1.86357e-07
5.49761e-07
-2.26228e-07
-2.26228e-07
1.38098e-07
1.6568e-07
5.94039e-07
-2.02077e-07
9.15626e-08
1.52267e-07
6.25541e-07
-1.91843e-07
4.54634e-08
1.43274e-07
6.45776e-07
-1.83239e-07
7.47873e-18
1.38931e-07
6.55718e-07
-1.79257e-07
-4.54634e-08
1.38931e-07
6.55718e-07
-1.79257e-07
-9.15626e-08
1.43274e-07
6.45776e-07
-1.83239e-07
-1.38098e-07
1.52267e-07
6.25541e-07
-1.91843e-07
-1.86357e-07
1.6568e-07
5.94039e-07
-2.02077e-07
1.86357e-07
5.49761e-07
-2.26228e-07
-2.26228e-07
1.6568e-07
1.38098e-07
5.94039e-07
-2.02077e-07
1.23363e-07
1.23363e-07
6.30477e-07
8.13103e-08
1.12064e-07
6.55946e-07
4.02646e-08
1.0447e-07
6.72347e-07
1.44432e-17
1.0074e-07
6.80429e-07
-4.02646e-08
1.0074e-07
6.80429e-07
-8.13103e-08
1.0447e-07
6.72347e-07
-1.23363e-07
1.12064e-07
6.55946e-07
-1.6568e-07
1.23363e-07
6.30477e-07
1.38098e-07
5.94039e-07
-2.02077e-07
1.52267e-07
9.15626e-08
6.25541e-07
-1.91843e-07
1.12064e-07
8.13103e-08
6.55946e-07
7.33437e-08
7.33437e-08
6.77314e-07
3.61962e-08
6.79789e-08
6.91201e-07
-1.21362e-16
6.53288e-08
6.98085e-07
-3.61962e-08
6.53288e-08
6.98085e-07
-7.33437e-08
6.79789e-08
6.91201e-07
-1.12064e-07
7.33437e-08
6.77314e-07
-1.52267e-07
8.13103e-08
6.55946e-07
9.15626e-08
6.25541e-07
-1.91843e-07
1.43274e-07
4.54634e-08
6.45776e-07
-1.83239e-07
1.0447e-07
4.02646e-08
6.72347e-07
6.79789e-08
3.61962e-08
6.91201e-07
3.34448e-08
3.34448e-08
7.03571e-07
1.4751e-17
3.20816e-08
7.09734e-07
-3.34448e-08
3.20816e-08
7.09734e-07
-6.79789e-08
3.34448e-08
7.03571e-07
-1.0447e-07
3.61962e-08
6.91201e-07
-1.43274e-07
4.02646e-08
6.72347e-07
4.54634e-08
6.45776e-07
-1.83239e-07
1.38931e-07
-3.66469e-16
6.55718e-07
-1.79257e-07
1.0074e-07
3.15505e-17
6.80429e-07
6.53288e-08
1.10186e-16
6.98085e-07
3.20816e-08
-3.7374e-17
7.09734e-07
-9.74366e-17
-1.69989e-16
7.15556e-07
-3.20816e-08
1.59695e-16
7.15556e-07
-6.53288e-08
9.73945e-17
7.09734e-07
-1.0074e-07
-5.05836e-17
6.98085e-07
-1.38931e-07
-6.77512e-17
6.80429e-07
-1.88343e-16
6.55718e-07
-1.79257e-07
1.38931e-07
-4.54634e-08
6.55718e-07
-1.79257e-07
1.0074e-07
-4.02646e-08
6.80429e-07
6.53288e-08
-3.61962e-08
6.98085e-07
3.20815e-08
-3.34448e-08
7.09734e-07
3.21265e-16
-3.20815e-08
7.15556e-07
-3.20816e-08
-3.20816e-08
7.15556e-07
-6.53288e-08
-3.34448e-08
7.09734e-07
-1.0074e-07
-3.61962e-08
6.98085e-07
-1.38931e-07
-4.02646e-08
6.80429e-07
-4.54634e-08
6.55718e-07
-1.79257e-07
1.43274e-07
-9.15626e-08
6.45776e-07
-1.83239e-07
1.0447e-07
-8.13103e-08
6.72347e-07
6.79789e-08
-7.33437e-08
6.91201e-07
3.34448e-08
-6.79789e-08
7.03571e-07
-5.00494e-17
-6.53288e-08
7.09734e-07
-3.34448e-08
-6.53288e-08
7.09734e-07
-6.79789e-08
-6.79789e-08
7.03571e-07
-1.0447e-07
-7.33437e-08
6.91201e-07
-1.43274e-07
-8.13103e-08
6.72347e-07
-9.15626e-08
6.45776e-07
-1.83239e-07
1.52267e-07
-1.38098e-07
6.25541e-07
-1.91843e-07
1.12064e-07
-1.23363e-07
6.55946e-07
7.33437e-08
-1.12064e-07
6.77314e-07
3.61962e-08
-1.0447e-07
6.91201e-07
-6.94656e-17
-1.0074e-07
6.98085e-07
-3.61962e-08
-1.0074e-07
6.98085e-07
-7.33437e-08
-1.0447e-07
6.91201e-07
-1.12064e-07
-1.12064e-07
6.77314e-07
-1.52267e-07
-1.23363e-07
6.55946e-07
-1.38098e-07
6.25541e-07
-1.91843e-07
1.6568e-07
-1.86357e-07
5.94039e-07
-2.02077e-07
1.23363e-07
-1.6568e-07
6.30477e-07
8.13103e-08
-1.52267e-07
6.55946e-07
4.02646e-08
-1.43274e-07
6.72347e-07
1.56568e-17
-1.38931e-07
6.80429e-07
-4.02646e-08
-1.38931e-07
6.80429e-07
-8.13103e-08
-1.43274e-07
6.72347e-07
-1.23363e-07
-1.52267e-07
6.55946e-07
-1.6568e-07
-1.6568e-07
6.30477e-07
-1.86357e-07
5.94039e-07
-2.02077e-07
1.86357e-07
5.49761e-07
-2.26228e-07
-2.26228e-07
1.38098e-07
5.94039e-07
-2.02077e-07
9.15626e-08
6.25541e-07
-1.91843e-07
4.54634e-08
6.45776e-07
-1.83239e-07
-1.21684e-16
6.55718e-07
-1.79257e-07
-4.54634e-08
6.55718e-07
-1.79257e-07
-9.15626e-08
6.45776e-07
-1.83239e-07
-1.38098e-07
6.25541e-07
-1.91843e-07
-1.86357e-07
5.94039e-07
-2.02077e-07
5.49761e-07
-2.26228e-07
-2.26228e-07
1.25212e-07
1.25212e-07
5.86048e-07
-1.43355e-07
-1.43355e-07
9.84761e-08
1.22805e-07
6.41604e-07
-1.43633e-07
6.72898e-08
1.19429e-07
6.79847e-07
-1.42548e-07
3.39838e-08
1.16264e-07
7.03524e-07
-1.40706e-07
-5.04167e-16
1.14622e-07
7.14859e-07
-1.39779e-07
-3.39838e-08
1.14622e-07
7.14859e-07
-1.39779e-07
-6.72898e-08
1.16264e-07
7.03524e-07
-1.40706e-07
-9.84761e-08
1.19429e-07
6.79847e-07
-1.42548e-07
-1.25212e-07
1.22805e-07
6.41604e-07
-1.43633e-07
1.25212e-07
5.86048e-07
-1.43355e-07
-1.43355e-07
1.22805e-07
9.84761e-08
6.41604e-07
-1.43633e-07
9.47369e-08
9.47369e-08
6.86614e-07
6.38544e-08
9.06815e-08
7.15576e-07
3.20058e-08
8.74364e-08
7.33023e-07
-1.68055e-16
8.57641e-08
7.41292e-07
-3.20058e-08
8.57641e-08
7.41292e-07
-6.38544e-08
8.74364e-08
7.33023e-07
-9.47369e-08
9.06815e-08
7.15576e-07
-1.22805e-07
9.47369e-08
6.86614e-07
9.84761e-08
6.41604e-07
-1.43633e-07
1.19429e-07
6.72898e-08
6.79847e-07
-1.42548e-07
9.06815e-08
6.38544e-08
7.15576e-07
6.04791e-08
6.04791e-08
7.37719e-07
3.01597e-08
5.79728e-08
7.50984e-07
8.56293e-17
5.67005e-08
7.57308e-07
-3.01597e-08
5.67005e-08
7.57308e-07
-6.04791e-08
5.79728e-08
7.50984e-07
-9.06815e-08
6.04791e-08
7.37719e-07
-1.19429e-07
6.38544e-08
7.15576e-07
6.72898e-08
6.79847e-07
-1.42548e-07
1.16264e-07
3.39838e-08
7.03524e-07
-1.40706e-07
8.74364e-08
3.20058e-08
7.33023e-07
5.79728e-08
3.01597e-08
7.50984e-07
2.88323e-08
2.88323e-08
7.61852e-07
1.99239e-16
2.8164e-08
7.67103e-07
-2.88323e-08
2.8164e-08
7.67103e-07
-5.79728e-08
2.88323e-08
7.61852e-07
-8.74364e-08
3.01597e-08
7.50984e-07
-1.16264e-07
3.20058e-08
7.33023e-07
3.39838e-08
7.03524e-07
-1.40706e-07
1.14622e-07
9.01184e-17
7.14859e-07
-1.39779e-07
8.57641e-08
9.05439e-17
7.41292e-07
5.67005e-08
3.30682e-16
7.57308e-07
2.8164e-08
2.63196e-16
7.67103e-07
-6.04479e-17
-1.20019e-16
7.71884e-07
-2.8164e-08
1.73769e-16
7.71884e-07
-5.67005e-08
3.33873e-16
7.67103e-07
-8.57641e-08
-2.68471e-17
7.57308e-07
-1.14622e-07
-1.08216e-16
7.41292e-07
-7.59917e-18
7.14859e-07
-1.39779e-07
1.14622e-07
-3.39838e-08
7.14859e-07
-1.39779e-07
8.57641e-08
-3.20058e-08
7.41292e-07
5.67005e-08
-3.01597e-08
7.57308e-07
2.8164e-08
-2.88323e-08
7.67103e-07
2.05593e-16
-2.8164e-08
7.71884e-07
-2.8164e-08
-2.8164e-08
7.71884e-07
-5.67005e-08
-2.88323e-08
7.67103e-07
-8.57641e-08
-3.01597e-08
7.57308e-07
-1.14622e-07
-3.20058e-08
7.41292e-07
-3.39838e-08
7.14859e-07
-1.39779e-07
1.16264e-07
-6.72898e-08
7.03524e-07
-1.40706e-07
8.74364e-08
-6.38544e-08
7.33023e-07
5.79728e-08
-6.04791e-08
7.50984e-07
2.88323e-08
-5.79728e-08
7.61852e-07
1.63253e-16
-5.67005e-08
7.67103e-07
-2.88323e-08
-5.67005e-08
7.67103e-07
-5.79728e-08
-5.79728e-08
7.61852e-07
-8.74364e-08
-6.04791e-08
7.50984e-07
-1.16264e-07
-6.38544e-08
7.33023e-07
-6.72898e-08
7.03524e-07
-1.40706e-07
1.19429e-07
-9.84761e-08
6.79847e-07
-1.42548e-07
9.06815e-08
-9.47369e-08
7.15576e-07
6.04791e-08
-9.06815e-08
7.37719e-07
3.01597e-08
-8.74364e-08
7.50984e-07
2.82226e-16
-8.57641e-08
7.57308e-07
-3.01597e-08
-8.57641e-08
7.57308e-07
-6.04791e-08
-8.74364e-08
7.50984e-07
-9.06815e-08
-9.06815e-08
7.37719e-07
-1.19429e-07
-9.47369e-08
7.15576e-07
-9.84761e-08
6.79847e-07
-1.42548e-07
1.22805e-07
-1.25212e-07
6.41604e-07
-1.43633e-07
9.47369e-08
-1.22805e-07
6.86614e-07
6.38544e-08
-1.19429e-07
7.15576e-07
3.20058e-08
-1.16264e-07
7.33023e-07
3.25686e-16
-1.14622e-07
7.41292e-07
-3.20058e-08
-1.14622e-07
7.41292e-07
-6.38544e-08
-1.16264e-07
7.33023e-07
-9.47369e-08
-1.19429e-07
7.15576e-07
-1.22805e-07
-1.22805e-07
6.86614e-07
-1.25212e-07
6.41604e-07
-1.43633e-07
1.25212e-07
5.86048e-07
-1.43355e-07
-1.43355e-07
9.84761e-08
6.41604e-07
-1.43633e-07
6.72898e-08
6.79847e-07
-1.42548e-07
3.39838e-08
7.03524e-07
-1.40706e-07
6.90269e-17
7.14859e-07
-1.39779e-07
-3.39838e-08
7.14859e-07
-1.39779e-07
-6.72898e-08
7.03524e-07
-1.40706e-07
-9.84761e-08
6.79847e-07
-1.42548e-07
-1.25212e-07
6.41604e-07
-1.43633e-07
5.86048e-07
-1.43355e-07
-1.43355e-07
9.00142e-08
9.00142e-08
5.96007e-07
-9.49939e-08
-9.49939e-08
7.53648e-08
9.48394e-08
6.62944e-07
-1.01531e-07
5.36692e-08
9.68094e-08
7.09438e-07
-1.04705e-07
2.77929e-08
9.71974e-08
7.38286e-07
-1.06084e-07
-4.14397e-16
9.72254e-08
7.52068e-07
-1.06641e-07
-2.77929e-08
9.72254e-08
7.52068e-07
-1.06641e-07
-5.36692e-08
9.71974e-08
7.38286e-07
-1.06084e-07
-7.53648e-08
9.68094e-08
7.09438e-07
-1.04705e-07
-9.00142e-08
9.48394e-08
6.62944e-07
-1.01531e-07
9.00142e-08
5.96007e-07
-9.49939e-08
-9.49939e-08
9.48394e-08
7.53648e-08
6.62944e-07
-1.01531e-07
7.82002e-08
7.82002e-08
7.19892e-07
5.52024e-08
7.89954e-08
7.56388e-07
2.84454e-08
7.88186e-08
7.78159e-07
4.64571e-16
7.85806e-08
7.88382e-07
-2.84454e-08
7.85806e-08
7.88382e-07
-5.52024e-08
7.88186e-08
7.78159e-07
-7.82002e-08
7.89954e-08
7.56388e-07
-9.48394e-08
7.82002e-08
7.19892e-07
7.53648e-08
6.62944e-07
-1.01531e-07
9.68094e-08
5.36692e-08
7.09438e-07
-1.04705e-07
7.89954e-08
5.52024e-08
7.56388e-07
5.53842e-08
5.53842e-08
7.84942e-07
2.84474e-08
5.50558e-08
8.01684e-07
8.04249e-16
5.47888e-08
8.09547e-07
-2.84474e-08
5.47888e-08
8.09547e-07
-5.53842e-08
5.50558e-08
8.01684e-07
-7.89954e-08
5.53842e-08
7.84942e-07
-9.68094e-08
5.52024e-08
7.56388e-07
5.36692e-08
7.09438e-07
-1.04705e-07
9.71974e-08
2.77929e-08
7.38286e-07
-1.06084e-07
7.88186e-08
2.84454e-08
7.78159e-07
5.50558e-08
2.84474e-08
8.01684e-07
2.82335e-08
2.82335e-08
8.15497e-07
6.05168e-16
2.80749e-08
8.2205e-07
-2.82335e-08
2.80749e-08
8.2205e-07
-5.50558e-08
2.82335e-08
8.15497e-07
-7.88186e-08
2.84474e-08
8.01684e-07
-9.71974e-08
2.84454e-08
7.78159e-07
2.77929e-08
7.38286e-07
-1.06084e-07
9.72254e-08
-1.98453e-16
7.52068e-07
-1.06641e-07
7.85806e-08
5.63692e-16
7.88382e-07
5.47888e-08
8.99118e-16
8.09547e-07
2.80749e-08
9.09841e-16
8.2205e-07
3.25942e-16
6.073e-16
8.28034e-07
-2.80749e-08
7.96123e-16
8.28034e-07
-5.47888e-08
1.00057e-15
8.2205e-07
-7.85806e-08
2.22375e-16
8.09547e-07
-9.72254e-08
-6.51731e-16
7.88382e-07
-5.0412e-16
7.52068e-07
-1.06641e-07
9.72254e-08
-2.77929e-08
7.52068e-07
-1.06641e-07
7.85806e-08
-2.84454e-08
7.88382e-07
5.47888e-08
-2.84474e-08
8.09547e-07
2.80749e-08
-2.82335e-08
8.2205e-07
6.74485e-16
-2.80749e-08
8.28034e-07
-2.80749e-08
-2.80749e-08
8.28034e-07
-5.47888e-08
-2.82335e-08
8.2205e-07
-7.85806e-08
-2.84474e-08
8.09547e-07
-9.72254e-08
-2.84454e-08
7.88382e-07
-2.77929e-08
7.52068e-07
-1.06641e-07
9.71974e-08
-5.36692e-08
7.38286e-07
-1.06084e-07
7.88186e-08
-5.52024e-08
7.78159e-07
5.50558e-08
-5.53842e-08
8.01684e-07
2.82335e-08
-5.50558e-08
8.15497e-07
3.72417e-16
-5.47888e-08
8.2205e-07
-2.82335e-08
-5.47888e-08
8.2205e-07
-5.50558e-08
-5.50558e-08
8.15497e-07
-7.88186e-08
-5.53842e-08
8.01684e-07
-9.71974e-08
-5.52024e-08
7.78159e-07
-5.36692e-08
7.38286e-07
-1.06084e-07
9.68094e-08
-7.53648e-08
7.09438e-07
-1.04705e-07
7.89954e-08
-7.82002e-08
7.56388e-07
5.53842e-08
-7.89954e-08
7.84942e-07
2.84474e-08
-7.88186e-08
8.01684e-07
-1.64743e-16
-7.85806e-08
8.09547e-07
-2.84474e-08
-7.85806e-08
8.09547e-07
-5.53842e-08
-7.88186e-08
8.01684e-07
-7.89954e-08
-7.89954e-08
7.84942e-07
-9.68094e-08
-7.82002e-08
7.56388e-07
-7.53648e-08
7.09438e-07
-1.04705e-07
9.48394e-08
-9.00142e-08
6.62944e-07
-1.01531e-07
7.82002e-08
-9.48394e-08
7.19892e-07
5.52024e-08
-9.68094e-08
7.56388e-07
2.84454e-08
-9.71974e-08
7.78159e-07
-5.99039e-16
-9.72254e-08
7.88382e-07
-2.84454e-08
-9.72254e-08
7.88382e-07
-5.52024e-08
-9.71974e-08
7.78159e-07
-7.82002e-08
-9.68094e-08
7.56388e-07
-9.48394e-08
-9.48394e-08
7.19892e-07
-9.00142e-08
6.62944e-07
-1.01531e-07
9.00142e-08
5.96007e-07
-9.49939e-08
-9.49939e-08
7.53648e-08
6.62944e-07
-1.01531e-07
5.36692e-08
7.09438e-07
-1.04705e-07
2.77929e-08
7.38286e-07
-1.06084e-07
-3.75516e-16
7.52068e-07
-1.06641e-07
-2.77929e-08
7.52068e-07
-1.06641e-07
-5.36692e-08
7.38286e-07
-1.06084e-07
-7.53648e-08
7.09438e-07
-1.04705e-07
-9.00142e-08
6.62944e-07
-1.01531e-07
5.96007e-07
-9.49939e-08
-9.49939e-08
4.04241e-08
4.04241e-08
5.95319e-07
-4.00803e-08
-4.00803e-08
3.58761e-08
4.63238e-08
6.67301e-07
-4.61321e-08
2.65727e-08
5.00743e-08
7.18312e-07
-4.9645e-08
1.41052e-08
5.21986e-08
7.50417e-07
-5.18613e-08
-2.33383e-16
5.31675e-08
7.65875e-07
-5.28694e-08
-1.41052e-08
5.31675e-08
7.65875e-07
-5.28694e-08
-2.65727e-08
5.21986e-08
7.50417e-07
-5.18613e-08
-3.58761e-08
5.00743e-08
7.18312e-07
-4.9645e-08
-4.04241e-08
4.63237e-08
6.67301e-07
-4.61321e-08
4.04241e-08
5.95319e-07
-4.00802e-08
-4.00802e-08
4.63238e-08
3.58761e-08
6.67301e-07
-4.61321e-08
4.06114e-08
4.06114e-08
7.31317e-07
2.994e-08
4.37008e-08
7.73433e-07
1.58365e-08
4.54244e-08
7.99036e-07
1.0419e-15
4.61954e-08
8.11191e-07
-1.58365e-08
4.61954e-08
8.11191e-07
-2.994e-08
4.54244e-08
7.99036e-07
-4.06114e-08
4.37008e-08
7.73433e-07
-4.63237e-08
4.06114e-08
7.31317e-07
3.58761e-08
6.67301e-07
-4.61321e-08
5.00743e-08
2.65727e-08
7.18312e-07
-4.9645e-08
4.37008e-08
2.994e-08
7.73433e-07
3.20985e-08
3.20985e-08
8.08146e-07
1.69433e-08
3.32929e-08
8.28971e-07
1.08125e-15
3.38185e-08
8.38867e-07
-1.69433e-08
3.38185e-08
8.38867e-07
-3.20985e-08
3.32929e-08
8.28971e-07
-4.37008e-08
3.20985e-08
8.08146e-07
-5.00743e-08
2.994e-08
7.73433e-07
2.65727e-08
7.18312e-07
-4.9645e-08
5.21986e-08
1.41052e-08
7.50417e-07
-5.18613e-08
4.54244e-08
1.58365e-08
7.99036e-07
3.32929e-08
1.69433e-08
8.28971e-07
1.75547e-08
1.75547e-08
8.46973e-07
7.3841e-16
1.78213e-08
8.55602e-07
-1.75547e-08
1.78213e-08
8.55602e-07
-3.32929e-08
1.75547e-08
8.46973e-07
-4.54244e-08
1.69433e-08
8.28971e-07
-5.21986e-08
1.58365e-08
7.99036e-07
1.41052e-08
7.50417e-07
-5.18613e-08
5.31675e-08
2.49643e-16
7.65875e-07
-5.28694e-08
4.61954e-08
1.39178e-15
8.11191e-07
3.38185e-08
1.13617e-15
8.38867e-07
1.78213e-08
9.25666e-16
8.55602e-07
7.34096e-16
9.38785e-16
8.63676e-07
-1.78213e-08
1.25674e-15
8.63676e-07
-3.38185e-08
1.42713e-15
8.55602e-07
-4.61954e-08
6.0843e-16
8.38867e-07
-5.31675e-08
-6.93019e-16
8.11191e-07
-1.06269e-15
7.65875e-07
-5.28694e-08
5.31675e-08
-1.41052e-08
7.65875e-07
-5.28694e-08
4.61954e-08
-1.58365e-08
8.11191e-07
3.38185e-08
-1.69433e-08
8.38867e-07
1.78213e-08
-1.75547e-08
8.55602e-07
1.1637e-15
-1.78213e-08
8.63676e-07
-1.78213e-08
-1.78213e-08
8.63676e-07
-3.38185e-08
-1.75547e-08
8.55602e-07
-4.61954e-08
-1.69433e-08
8.38867e-07
-5.31675e-08
-1.58365e-08
8.11191e-07
-1.41052e-08
7.65875e-07
-5.28694e-08
5.21986e-08
-2.65727e-08
7.50417e-07
-5.18613e-08
4.54244e-08
-2.994e-08
7.99036e-07
3.32929e-08
-3.20985e-08
8.28971e-07
1.75547e-08
-3.32929e-08
8.46973e-07
1.07834e-15
-3.38185e-08
8.55602e-07
-1.75547e-08
-3.38185e-08
8.55602e-07
-3.32929e-08
-3.32929e-08
8.46973e-07
-4.54244e-08
-3.20985e-08
8.28971e-07
-5.21986e-08
-2.994e-08
7.99036e-07
-2.65727e-08
7.50417e-07
-5.18613e-08
5.00743e-08
-3.58761e-08
7.18312e-07
-4.9645e-08
4.37008e-08
-4.06114e-08
7.73433e-07
3.20985e-08
-4.37008e-08
8.08146e-07
1.69433e-08
-4.54244e-08
8.28971e-07
4.50156e-16
-4.61954e-08
8.38867e-07
-1.69433e-08
-4.61954e-08
8.38867e-07
-3.20985e-08
-4.54244e-08
8.28971e-07
-4.37008e-08
-4.37008e-08
8.08146e-07
-5.00743e-08
-4.06114e-08
7.73433e-07
-3.58761e-08
7.18312e-07
-4.9645e-08
4.63237e-08
-4.04241e-08
6.67301e-07
-4.61321e-08
4.06114e-08
-4.63237e-08
7.31317e-07
2.994e-08
-5.00743e-08
7.73433e-07
1.58365e-08
-5.21986e-08
7.99036e-07
-7.05781e-16
-5.31675e-08
8.11191e-07
-1.58365e-08
-5.31675e-08
8.11191e-07
-2.994e-08
-5.21986e-08
7.99036e-07
-4.06114e-08
-5.00743e-08
7.73433e-07
-4.63238e-08
-4.63238e-08
7.31317e-07
-4.04241e-08
6.67301e-07
-4.61321e-08
4.04241e-08
5.95319e-07
-4.00802e-08
-4.00802e-08
3.58761e-08
6.67301e-07
-4.61321e-08
2.65727e-08
7.18312e-07
-4.9645e-08
1.41052e-08
7.50417e-07
-5.18613e-08
-7.6818e-16
7.65875e-07
-5.28694e-08
-1.41052e-08
7.65875e-07
-5.28694e-08
-2.65727e-08
7.50417e-07
-5.18613e-08
-3.58761e-08
7.18312e-07
-4.9645e-08
-4.04241e-08
6.67301e-07
-4.61321e-08
5.95319e-07
-4.00803e-08
-4.00803e-08
1.81338e-08
1.81338e-08
5.93151e-07
-1.70499e-08
-1.70499e-08
1.66658e-08
2.16407e-08
6.67299e-07
-2.01708e-08
1.26748e-08
2.41342e-08
7.20462e-07
-2.22932e-08
6.83712e-09
2.57053e-08
7.5425e-07
-2.37007e-08
1.60628e-16
2.6452e-08
7.70619e-07
-2.4358e-08
-6.83712e-09
2.6452e-08
7.70619e-07
-2.4358e-08
-1.26748e-08
2.57053e-08
7.5425e-07
-2.37007e-08
-1.66658e-08
2.41342e-08
7.20462e-07
-2.22932e-08
-1.81338e-08
2.16407e-08
6.67299e-07
-2.01708e-08
1.81338e-08
5.93151e-07
-1.70499e-08
-1.70499e-08
2.16407e-08
1.66658e-08
6.67299e-07
-2.01708e-08
1.98578e-08
1.98578e-08
7.34883e-07
1.50949e-08
2.21549e-08
7.80175e-07
8.13004e-09
2.35704e-08
8.08136e-07
1.04408e-15
2.42383e-08
8.21534e-07
-8.13004e-09
2.42383e-08
8.21534e-07
-1.50949e-08
2.35704e-08
8.08136e-07
-1.98578e-08
2.21549e-08
7.80175e-07
-2.16407e-08
1.98578e-08
7.34883e-07
1.66658e-08
6.67299e-07
-2.01708e-08
2.41342e-08
1.26748e-08
7.20462e-07
-2.22932e-08
2.21549e-08
1.50949e-08
7.80175e-07
1.68238e-08
1.68238e-08
8.18808e-07
9.04911e-09
1.78727e-08
8.42443e-07
1.0204e-15
1.83608e-08
8.53794e-07
-9.04911e-09
1.83608e-08
8.53794e-07
-1.68238e-08
1.78727e-08
8.42443e-07
-2.21548e-08
1.68238e-08
8.18808e-07
-2.41342e-08
1.50949e-08
7.80175e-07
1.26748e-08
7.20462e-07
-2.22932e-08
2.57053e-08
6.83712e-09
7.5425e-07
-2.37007e-08
2.35704e-08
8.13004e-09
8.08136e-07
1.78727e-08
9.04911e-09
8.42443e-07
9.60319e-09
9.60319e-09
8.63512e-07
6.83251e-16
9.85888e-09
8.73707e-07
-9.60319e-09
9.85888e-09
8.73707e-07
-1.78727e-08
9.60319e-09
8.63512e-07
-2.35704e-08
9.04911e-09
8.42443e-07
-2.57053e-08
8.13004e-09
8.08136e-07
6.83712e-09
7.5425e-07
-2.37007e-08
2.6452e-08
3.76853e-16
7.70619e-07
-2.4358e-08
2.42383e-08
1.40418e-15
8.21534e-07
1.83608e-08
1.37526e-15
8.53794e-07
9.85888e-09
1.08632e-15
8.73707e-07
6.90857e-16
1.04671e-15
8.83394e-07
-9.85888e-09
1.23835e-15
8.83394e-07
-1.83608e-08
1.11289e-15
8.73707e-07
-2.42383e-08
5.10552e-16
8.53794e-07
-2.6452e-08
-1.76947e-16
8.21534e-07
-5.23228e-16
7.70619e-07
-2.4358e-08
2.6452e-08
-6.83712e-09
7.70619e-07
-2.4358e-08
2.42383e-08
-8.13004e-09
8.21534e-07
1.83608e-08
-9.04911e-09
8.53794e-07
9.85888e-09
-9.60319e-09
8.73707e-07
9.11728e-16
-9.85888e-09
8.83394e-07
-9.85888e-09
-9.85888e-09
8.83394e-07
-1.83608e-08
-9.60319e-09
8.73707e-07
-2.42383e-08
-9.04911e-09
8.53794e-07
-2.6452e-08
-8.13004e-09
8.21534e-07
-6.83712e-09
7.70619e-07
-2.4358e-08
2.57053e-08
-1.26748e-08
7.5425e-07
-2.37007e-08
2.35704e-08
-1.50949e-08
8.08136e-07
1.78727e-08
-1.68238e-08
8.42443e-07
9.60319e-09
-1.78727e-08
8.63512e-07
7.38497e-16
-1.83608e-08
8.73707e-07
-9.60319e-09
-1.83608e-08
8.73707e-07
-1.78727e-08
-1.78727e-08
8.63512e-07
-2.35704e-08
-1.68238e-08
8.42443e-07
-2.57053e-08
-1.50949e-08
8.08136e-07
-1.26748e-08
7.5425e-07
-2.37007e-08
2.41342e-08
-1.66658e-08
7.20462e-07
-2.22932e-08
2.21549e-08
-1.98578e-08
7.80175e-07
1.68238e-08
-2.21548e-08
8.18808e-07
9.04911e-09
-2.35704e-08
8.42443e-07
1.52676e-16
-2.42383e-08
8.53794e-07
-9.04911e-09
-2.42383e-08
8.53794e-07
-1.68238e-08
-2.35704e-08
8.42443e-07
-2.21549e-08
-2.21549e-08
8.18808e-07
-2.41341e-08
-1.98578e-08
7.80175e-07
-1.66658e-08
7.20462e-07
-2.22932e-08
2.16407e-08
-1.81338e-08
6.67299e-07
-2.01708e-08
1.98578e-08
-2.16407e-08
7.34883e-07
1.50949e-08
-2.41341e-08
7.80175e-07
8.13004e-09
-2.57053e-08
8.08136e-07
-4.12315e-16
-2.6452e-08
8.21534e-07
-8.13004e-09
-2.6452e-08
8.21534e-07
-1.50949e-08
-2.57053e-08
8.08136e-07
-1.98578e-08
-2.41341e-08
7.80175e-07
-2.16407e-08
-2.16407e-08
7.34883e-07
-1.81338e-08
6.67299e-07
-2.01708e-08
1.81338e-08
5.93151e-07
-1.70499e-08
-1.70499e-08
1.66658e-08
6.67299e-07
-2.01708e-08
1.26748e-08
7.20462e-07
-2.22932e-08
6.83712e-09
7.5425e-07
-2.37007e-08
-2.9714e-16
7.70619e-07
-2.4358e-08
-6.83712e-09
7.70619e-07
-2.4358e-08
-1.26748e-08
7.5425e-07
-2.37007e-08
-1.66658e-08
7.20462e-07
-2.22932e-08
-1.81338e-08
6.67299e-07
-2.01708e-08
5.93151e-07
-1.70499e-08
-1.70499e-08
6.58358e-09
6.58358e-09
5.91346e-07
-5.68095e-09
-5.68095e-09
6.44422e-09
8.50454e-09
6.66137e-07
-7.20367e-09
5.11305e-09
9.98728e-09
7.20141e-07
-8.33536e-09
2.82757e-09
1.09874e-08
7.54682e-07
-9.13475e-09
9.52569e-17
1.14783e-08
7.71487e-07
-9.51922e-09
-2.82757e-09
1.14783e-08
7.71487e-07
-9.51922e-09
-5.11305e-09
1.09874e-08
7.54682e-07
-9.13475e-09
-6.44422e-09
9.98728e-09
7.20141e-07
-8.33536e-09
-6.58358e-09
8.50454e-09
6.66137e-07
-7.20367e-09
6.58358e-09
5.91346e-07
-5.68095e-09
-5.68095e-09
8.50454e-09
6.44422e-09
6.66137e-07
-7.20367e-09
8.33896e-09
8.33896e-09
7.35214e-07
6.615e-09
9.80804e-09
7.82079e-07
3.64995e-09
1.07717e-08
8.11317e-07
4.76338e-16
1.12418e-08
8.25421e-07
-3.64995e-09
1.12418e-08
8.25421e-07
-6.615e-09
1.07717e-08
8.11317e-07
-8.33895e-09
9.80804e-09
7.82079e-07
-8.50454e-09
8.33895e-09
7.35214e-07
6.44422e-09
6.66137e-07
-7.20367e-09
9.98728e-09
5.11305e-09
7.20141e-07
-8.33536e-09
9.80804e-09
6.615e-09
7.82079e-07
7.76891e-09
7.76891e-09
8.22887e-07
4.27671e-09
8.51096e-09
8.48196e-07
3.72919e-16
8.86829e-09
8.60444e-07
-4.27671e-09
8.86829e-09
8.60444e-07
-7.76891e-09
8.51096e-09
8.48196e-07
-9.80804e-09
7.76891e-09
8.22887e-07
-9.98728e-09
6.615e-09
7.82079e-07
5.11305e-09
7.20141e-07
-8.33536e-09
1.09874e-08
2.82757e-09
7.54682e-07
-9.13475e-09
1.07717e-08
3.64995e-09
8.11317e-07
8.51096e-09
4.27671e-09
8.48196e-07
4.67602e-09
4.67602e-09
8.71182e-07
3.66777e-16
4.86677e-09
8.82385e-07
-4.67602e-09
4.86677e-09
8.82385e-07
-8.51096e-09
4.67602e-09
8.71182e-07
-1.07717e-08
4.27671e-09
8.48196e-07
-1.09874e-08
3.64995e-09
8.11317e-07
2.82757e-09
7.54682e-07
-9.13475e-09
1.14783e-08
2.28626e-16
7.71487e-07
-9.51922e-09
1.12418e-08
8.3502e-16
8.25421e-07
8.86829e-09
6.88434e-16
8.60444e-07
4.86677e-09
5.17721e-16
8.82385e-07
6.8655e-16
6.74017e-16
8.93128e-07
-4.86677e-09
1.08493e-15
8.93128e-07
-8.86829e-09
1.0721e-15
8.82385e-07
-1.12418e-08
7.09715e-16
8.60444e-07
-1.14783e-08
1.74828e-16
8.25421e-07
-3.35455e-16
7.71487e-07
-9.51922e-09
1.14783e-08
-2.82757e-09
7.71487e-07
-9.51922e-09
1.12418e-08
-3.64995e-09
8.25421e-07
8.86829e-09
-4.27671e-09
8.60444e-07
4.86677e-09
-4.67602e-09
8.82385e-07
1.01696e-15
-4.86677e-09
8.93128e-07
-4.86677e-09
-4.86677e-09
8.93128e-07
-8.86829e-09
-4.67602e-09
8.82385e-07
-1.12418e-08
-4.27671e-09
8.60444e-07
-1.14783e-08
-3.64995e-09
8.25421e-07
-2.82757e-09
7.71487e-07
-9.51922e-09
1.09874e-08
-5.11305e-09
7.54682e-07
-9.13475e-09
1.07717e-08
-6.615e-09
8.11317e-07
8.51096e-09
-7.76891e-09
8.48196e-07
4.67602e-09
-8.51096e-09
8.71182e-07
1.04722e-15
-8.86829e-09
8.82385e-07
-4.67602e-09
-8.86829e-09
8.82385e-07
-8.51096e-09
-8.51096e-09
8.71182e-07
-1.07717e-08
-7.76891e-09
8.48196e-07
-1.09874e-08
-6.615e-09
8.11317e-07
-5.11305e-09
7.54682e-07
-9.13475e-09
9.98728e-09
-6.44422e-09
7.20141e-07
-8.33536e-09
9.80804e-09
-8.33895e-09
7.82079e-07
7.76891e-09
-9.80804e-09
8.22887e-07
4.27671e-09
-1.07717e-08
8.48196e-07
6.56656e-16
-1.12418e-08
8.60444e-07
-4.27671e-09
-1.12418e-08
8.60444e-07
-7.76891e-09
-1.07717e-08
8.48196e-07
-9.80804e-09
-9.80804e-09
8.22887e-07
-9.98728e-09
-8.33896e-09
7.82079e-07
-6.44422e-09
7.20141e-07
-8.33536e-09
8.50454e-09
-6.58358e-09
6.66137e-07
-7.20367e-09
8.33896e-09
-8.50454e-09
7.35214e-07
6.615e-09
-9.98728e-09
7.82079e-07
3.64995e-09
-1.09874e-08
8.11317e-07
7.51517e-17
-1.14783e-08
8.25421e-07
-3.64995e-09
-1.14783e-08
8.25421e-07
-6.615e-09
-1.09874e-08
8.11317e-07
-8.33895e-09
-9.98728e-09
7.82079e-07
-8.50454e-09
-8.50454e-09
7.35214e-07
-6.58358e-09
6.66137e-07
-7.20367e-09
6.58358e-09
5.91346e-07
-5.68095e-09
-5.68095e-09
6.44421e-09
6.66137e-07
-7.20367e-09
5.11305e-09
7.20141e-07
-8.33536e-09
2.82757e-09
7.54682e-07
-9.13475e-09
-1.26974e-16
7.71487e-07
-9.51922e-09
-2.82757e-09
7.71487e-07
-9.51922e-09
-5.11305e-09
7.54682e-07
-9.13475e-09
-6.44421e-09
7.20141e-07
-8.33536e-09
-6.58358e-09
6.66137e-07
-7.20367e-09
5.91346e-07
-5.68095e-09
-5.68095e-09
1.93446e-09
1.93446e-09
5.90453e-07
-1.48771e-09
-1.48771e-09
2.05055e-09
2.77187e-09
6.6533e-07
-2.08063e-09
1.70972e-09
3.47001e-09
7.19567e-07
-2.55461e-09
9.72813e-10
3.9714e-09
7.54363e-07
-2.91537e-09
1.90732e-16
4.22408e-09
7.71328e-07
-3.09258e-09
-9.72812e-10
4.22408e-09
7.71328e-07
-3.09258e-09
-1.70972e-09
3.9714e-09
7.54363e-07
-2.91537e-09
-2.05055e-09
3.47001e-09
7.19567e-07
-2.55461e-09
-1.93446e-09
2.77187e-09
6.6533e-07
-2.08063e-09
1.93446e-09
5.90453e-07
-1.48771e-09
-1.48771e-09
2.77187e-09
2.05055e-09
6.6533e-07
-2.08063e-09
2.94006e-09
2.94006e-09
7.34877e-07
2.44739e-09
3.68203e-09
7.82359e-07
1.38681e-09
4.19738e-09
8.12152e-07
4.09982e-16
4.45589e-09
8.26576e-07
-1.38681e-09
4.45589e-09
8.26576e-07
-2.44739e-09
4.19738e-09
8.12152e-07
-2.94006e-09
3.68203e-09
7.82359e-07
-2.77187e-09
2.94006e-09
7.34877e-07
2.05055e-09
6.6533e-07
-2.08063e-09
3.47001e-09
1.70972e-09
7.19567e-07
-2.55461e-09
3.68203e-09
2.44739e-09
7.82359e-07
3.05458e-09
3.05458e-09
8.24142e-07
1.72386e-09
3.4668e-09
8.50257e-07
5.5538e-16
3.67124e-09
8.62953e-07
-1.72386e-09
3.67124e-09
8.62953e-07
-3.05458e-09
3.4668e-09
8.50257e-07
-3.68203e-09
3.05458e-09
8.24142e-07
-3.47001e-09
2.44739e-09
7.82359e-07
1.70972e-09
7.19567e-07
-2.55461e-09
3.9714e-09
9.72813e-10
7.54363e-07
-2.91537e-09
4.19738e-09
1.38681e-09
8.12152e-07
3.4668e-09
1.72386e-09
8.50257e-07
1.95012e-09
1.95012e-09
8.74215e-07
5.97951e-16
2.06155e-09
8.85945e-07
-1.95012e-09
2.06155e-09
8.85945e-07
-3.4668e-09
1.95012e-09
8.74215e-07
-4.19738e-09
1.72386e-09
8.50257e-07
-3.9714e-09
1.38681e-09
8.12152e-07
9.72812e-10
7.54363e-07
-2.91537e-09
4.22407e-09
9.23287e-17
7.71328e-07
-3.09258e-09
4.45589e-09
5.0918e-16
8.26576e-07
3.67124e-09
8.1674e-16
8.62953e-07
2.06155e-09
8.10673e-16
8.85945e-07
7.03066e-16
7.67486e-16
8.97251e-07
-2.06154e-09
7.27547e-16
8.97251e-07
-3.67124e-09
5.57752e-16
8.85945e-07
-4.45589e-09
4.18445e-16
8.62953e-07
-4.22407e-09
2.34873e-16
8.26576e-07
-6.79428e-18
7.71328e-07
-3.09258e-09
4.22407e-09
-9.72812e-10
7.71328e-07
-3.09258e-09
4.45589e-09
-1.38681e-09
8.26576e-07
3.67124e-09
-1.72386e-09
8.62953e-07
2.06155e-09
-1.95012e-09
8.85945e-07
5.50478e-16
-2.06154e-09
8.97251e-07
-2.06154e-09
-2.06154e-09
8.97251e-07
-3.67124e-09
-1.95012e-09
8.85945e-07
-4.45589e-09
-1.72386e-09
8.62953e-07
-4.22407e-09
-1.38681e-09
8.26576e-07
-9.72812e-10
7.71328e-07
-3.09258e-09
3.9714e-09
-1.70972e-09
7.54363e-07
-2.91537e-09
4.19738e-09
-2.44739e-09
8.12152e-07
3.4668e-09
-3.05458e-09
8.50257e-07
1.95012e-09
-3.4668e-09
8.74215e-07
4.91069e-16
-3.67124e-09
8.85945e-07
-1.95012e-09
-3.67124e-09
8.85945e-07
-3.4668e-09
-3.4668e-09
8.74215e-07
-4.19738e-09
-3.05458e-09
8.50257e-07
-3.9714e-09
-2.44739e-09
8.12152e-07
-1.70972e-09
7.54363e-07
-2.91537e-09
3.47001e-09
-2.05055e-09
7.19567e-07
-2.55461e-09
3.68203e-09
-2.94006e-09
7.82359e-07
3.05458e-09
-3.68203e-09
8.24142e-07
1.72386e-09
-4.19738e-09
8.50257e-07
3.06831e-16
-4.45588e-09
8.62953e-07
-1.72386e-09
-4.45589e-09
8.62953e-07
-3.05458e-09
-4.19738e-09
8.50257e-07
-3.68203e-09
-3.68203e-09
8.24142e-07
-3.47001e-09
-2.94006e-09
7.82359e-07
-2.05055e-09
7.19567e-07
-2.55461e-09
2.77187e-09
-1.93446e-09
6.6533e-07
-2.08063e-09
2.94006e-09
-2.77187e-09
7.34877e-07
2.44739e-09
-3.47001e-09
7.82359e-07
1.38681e-09
-3.9714e-09
8.12152e-07
-3.51783e-17
-4.22407e-09
8.26576e-07
-1.38681e-09
-4.22407e-09
8.26576e-07
-2.44739e-09
-3.9714e-09
8.12152e-07
-2.94006e-09
-3.47001e-09
7.82359e-07
-2.77187e-09
-2.77187e-09
7.34877e-07
-1.93446e-09
6.6533e-07
-2.08063e-09
1.93446e-09
5.90453e-07
-1.48771e-09
-1.48771e-09
2.05055e-09
6.6533e-07
-2.08063e-09
1.70972e-09
7.19567e-07
-2.55461e-09
9.72812e-10
7.54363e-07
-2.91537e-09
-2.71281e-16
7.71328e-07
-3.09258e-09
-9.72812e-10
7.71328e-07
-3.09258e-09
-1.70972e-09
7.54363e-07
-2.91537e-09
-2.05055e-09
7.19567e-07
-2.55461e-09
-1.93446e-09
6.6533e-07
-2.08063e-09
5.90453e-07
-1.48771e-09
-1.48771e-09
4.72182e-10
4.72182e-10
5.90087e-07
-2.8964e-10
-2.8964e-10
5.629e-10
7.83088e-10
6.64945e-07
-4.88818e-10
5.01227e-10
1.05824e-09
7.1923e-07
-6.60291e-10
2.95251e-10
1.26568e-09
7.541e-07
-7.9675e-10
7.26522e-17
1.37211e-09
7.71116e-07
-8.64812e-10
-2.9525e-10
1.37211e-09
7.71116e-07
-8.64812e-10
-5.01227e-10
1.26568e-09
7.541e-07
-7.9675e-10
-5.629e-10
1.05823e-09
7.1923e-07
-6.60291e-10
-4.72182e-10
7.83088e-10
6.64945e-07
-4.88818e-10
4.72182e-10
5.90087e-07
-2.8964e-10
-2.89641e-10
7.83088e-10
5.62899e-10
6.64945e-07
-4.88818e-10
9.14836e-10
9.14836e-10
7.34614e-07
8.03216e-10
1.22459e-09
7.82305e-07
4.68038e-10
1.44953e-09
8.12303e-07
1.1986e-16
1.56463e-09
8.26851e-07
-4.68038e-10
1.56463e-09
8.26851e-07
-8.03216e-10
1.44953e-09
8.12303e-07
-9.14837e-10
1.22459e-09
7.82305e-07
-7.83088e-10
9.14837e-10
7.34614e-07
5.62899e-10
6.64945e-07
-4.88818e-10
1.05823e-09
5.01227e-10
7.1923e-07
-6.60291e-10
1.22459e-09
8.03216e-10
7.82305e-07
1.0655e-09
1.0655e-09
8.2446e-07
6.1631e-10
1.25139e-09
8.50905e-07
1.91957e-16
1.34556e-09
8.63788e-07
-6.1631e-10
1.34556e-09
8.63788e-07
-1.0655e-09
1.25139e-09
8.50905e-07
-1.22459e-09
1.0655e-09
8.2446e-07
-1.05823e-09
8.03216e-10
7.82305e-07
5.01227e-10
7.1923e-07
-6.6029e-10
1.26568e-09
2.9525e-10
7.541e-07
-7.9675e-10
1.44953e-09
4.68038e-10
8.12303e-07
1.25139e-09
6.16311e-10
8.50905e-07
7.20168e-10
7.20168e-10
8.75278e-07
3.1296e-16
7.72457e-10
8.87238e-07
-7.20167e-10
7.72457e-10