/*--------------------------------*- C++ -*----------------------------------*\
| =========                 |                                                 |
| \\      /  F ield         | OpenFOAM: The Open Source CFD Toolbox           |
|  \\    /   O peration     | Version:  2412                                  |
|   \\  /    A nd           | Website:  www.openfoam.com                      |
|    \\/     M anipulation  |                                                 |
\*---------------------------------------------------------------------------*/
FoamFile
{
    version     2.0;
    format      ascii;
    arch        "LSB;label=32;scalar=64";
    class       volVectorField;
    location    "6.1";
    object      U;
}
// * * * * * * * * * * * * * * * * * * * * * * * * * * * * * * * * * * * * * //

dimensions      [0 1 -1 0 0 0 0];

internalField   nonuniform List<vector> 
15000
(
(0.00122269 0.00122269 0.0104244)
(0.000905567 0.00114805 0.0103894)
(0.000618379 0.00112324 0.0103565)
(0.000363374 0.00109783 0.0103333)
(0.000119398 0.00108599 0.0103218)
(-0.000119398 0.00108599 0.0103218)
(-0.000363374 0.00109783 0.0103333)
(-0.000618379 0.00112324 0.0103565)
(-0.000905567 0.00114805 0.0103894)
(-0.00122269 0.00122269 0.0104244)
(0.00114805 0.000905567 0.0103894)
(0.000856098 0.000856098 0.0103374)
(0.000586344 0.000819442 0.0102986)
(0.000341919 0.000792804 0.0102745)
(0.000112154 0.000779693 0.010263)
(-0.000112154 0.000779693 0.010263)
(-0.000341919 0.000792804 0.0102745)
(-0.000586344 0.000819442 0.0102986)
(-0.000856098 0.000856098 0.0103374)
(-0.00114805 0.000905567 0.0103894)
(0.00112324 0.000618379 0.0103565)
(0.000819442 0.000586344 0.0102986)
(0.000556283 0.000556283 0.0102602)
(0.000322195 0.000534073 0.0102369)
(0.000105392 0.000522787 0.0102258)
(-0.000105392 0.000522787 0.0102258)
(-0.000322195 0.000534073 0.0102369)
(-0.000556283 0.000556283 0.0102602)
(-0.000819442 0.000586344 0.0102986)
(-0.00112324 0.000618379 0.0103565)
(0.00109783 0.000363374 0.0103333)
(0.000792804 0.000341919 0.0102745)
(0.000534073 0.000322195 0.0102369)
(0.000307651 0.000307651 0.0102139)
(0.00010039 0.0003002 0.0102028)
(-0.00010039 0.0003002 0.0102028)
(-0.000307651 0.000307651 0.0102139)
(-0.000534073 0.000322195 0.0102369)
(-0.000792804 0.000341919 0.0102745)
(-0.00109783 0.000363374 0.0103333)
(0.00108599 0.000119398 0.0103218)
(0.000779693 0.000112154 0.010263)
(0.000522787 0.000105392 0.0102258)
(0.0003002 0.00010039 0.0102028)
(9.78204e-05 9.78204e-05 0.0101917)
(-9.78203e-05 9.78203e-05 0.0101917)
(-0.0003002 0.00010039 0.0102028)
(-0.000522787 0.000105392 0.0102258)
(-0.000779693 0.000112154 0.010263)
(-0.00108599 0.000119398 0.0103218)
(0.00108599 -0.000119398 0.0103218)
(0.000779693 -0.000112154 0.010263)
(0.000522787 -0.000105392 0.0102258)
(0.0003002 -0.00010039 0.0102028)
(9.78203e-05 -9.78203e-05 0.0101917)
(-9.78204e-05 -9.78204e-05 0.0101917)
(-0.0003002 -0.00010039 0.0102028)
(-0.000522787 -0.000105392 0.0102258)
(-0.000779693 -0.000112154 0.010263)
(-0.00108599 -0.000119398 0.0103218)
(0.00109783 -0.000363374 0.0103333)
(0.000792804 -0.000341919 0.0102745)
(0.000534073 -0.000322195 0.0102369)
(0.000307651 -0.000307651 0.0102139)
(0.00010039 -0.0003002 0.0102028)
(-0.00010039 -0.0003002 0.0102028)
(-0.000307651 -0.000307651 0.0102139)
(-0.000534073 -0.000322195 0.0102369)
(-0.000792804 -0.000341919 0.0102745)
(-0.00109783 -0.000363374 0.0103333)
(0.00112324 -0.000618379 0.0103565)
(0.000819442 -0.000586344 0.0102986)
(0.000556283 -0.000556283 0.0102602)
(0.000322195 -0.000534073 0.0102369)
(0.000105392 -0.000522787 0.0102258)
(-0.000105392 -0.000522787 0.0102258)
(-0.000322195 -0.000534073 0.0102369)
(-0.000556283 -0.000556283 0.0102602)
(-0.000819442 -0.000586344 0.0102986)
(-0.00112324 -0.000618379 0.0103565)
(0.00114805 -0.000905567 0.0103894)
(0.000856098 -0.000856098 0.0103374)
(0.000586344 -0.000819442 0.0102986)
(0.000341919 -0.000792804 0.0102745)
(0.000112154 -0.000779693 0.010263)
(-0.000112154 -0.000779693 0.010263)
(-0.000341919 -0.000792804 0.0102745)
(-0.000586344 -0.000819442 0.0102986)
(-0.000856098 -0.000856098 0.0103374)
(-0.00114805 -0.000905567 0.0103894)
(0.00122269 -0.00122269 0.0104244)
(0.000905567 -0.00114805 0.0103894)
(0.000618379 -0.00112324 0.0103565)
(0.000363374 -0.00109783 0.0103333)
(0.000119398 -0.00108599 0.0103218)
(-0.000119398 -0.00108599 0.0103218)
(-0.000363374 -0.00109783 0.0103333)
(-0.000618379 -0.00112324 0.0103565)
(-0.000905567 -0.00114805 0.0103894)
(-0.00122269 -0.00122269 0.0104244)
(0.000762205 0.000762204 0.012642)
(0.000603172 0.000805279 0.0126228)
(0.000429529 0.000831441 0.012539)
(0.000257029 0.000842369 0.0124548)
(8.51238e-05 0.000847596 0.0124063)
(-8.51239e-05 0.000847596 0.0124063)
(-0.000257029 0.000842369 0.0124548)
(-0.000429529 0.000831441 0.012539)
(-0.000603172 0.000805279 0.0126228)
(-0.000762205 0.000762205 0.012642)
(0.000805279 0.000603172 0.0126228)
(0.000626005 0.000626005 0.0124748)
(0.000440119 0.000634239 0.0122987)
(0.000260394 0.0006351 0.0121624)
(8.59938e-05 0.000635083 0.0120907)
(-8.59938e-05 0.000635083 0.0120907)
(-0.000260394 0.0006351 0.0121624)
(-0.000440119 0.000634239 0.0122987)
(-0.000626005 0.000626005 0.0124748)
(-0.000805279 0.000603172 0.0126228)
(0.000831441 0.000429529 0.012539)
(0.000634239 0.000440119 0.0122987)
(0.000441328 0.000441328 0.0120714)
(0.000259413 0.000439378 0.01191)
(8.54991e-05 0.000438046 0.0118284)
(-8.54991e-05 0.000438046 0.0118284)
(-0.000259413 0.000439378 0.01191)
(-0.000441328 0.000441328 0.0120714)
(-0.000634239 0.000440119 0.0122987)
(-0.000831441 0.000429529 0.012539)
(0.000842369 0.000257029 0.0124548)
(0.0006351 0.000260394 0.0121624)
(0.000439378 0.000259413 0.01191)
(0.000257487 0.000257487 0.0117384)
(8.47855e-05 0.00025635 0.0116532)
(-8.47855e-05 0.00025635 0.0116532)
(-0.000257487 0.000257487 0.0117384)
(-0.000439378 0.000259413 0.01191)
(-0.0006351 0.000260394 0.0121624)
(-0.000842369 0.000257029 0.0124548)
(0.000847596 8.51238e-05 0.0124063)
(0.000635083 8.59938e-05 0.0120907)
(0.000438046 8.54991e-05 0.0118284)
(0.00025635 8.47855e-05 0.0116532)
(8.43752e-05 8.43752e-05 0.011567)
(-8.43752e-05 8.43752e-05 0.011567)
(-0.00025635 8.47855e-05 0.0116532)
(-0.000438046 8.54991e-05 0.0118284)
(-0.000635083 8.59938e-05 0.0120907)
(-0.000847596 8.51238e-05 0.0124063)
(0.000847596 -8.51238e-05 0.0124063)
(0.000635083 -8.59938e-05 0.0120907)
(0.000438046 -8.54991e-05 0.0118284)
(0.00025635 -8.47855e-05 0.0116532)
(8.43752e-05 -8.43752e-05 0.011567)
(-8.43752e-05 -8.43752e-05 0.011567)
(-0.00025635 -8.47855e-05 0.0116532)
(-0.000438046 -8.54991e-05 0.0118284)
(-0.000635083 -8.59938e-05 0.0120907)
(-0.000847596 -8.51238e-05 0.0124063)
(0.000842369 -0.000257029 0.0124548)
(0.0006351 -0.000260394 0.0121624)
(0.000439378 -0.000259413 0.01191)
(0.000257487 -0.000257487 0.0117384)
(8.47855e-05 -0.00025635 0.0116532)
(-8.47855e-05 -0.00025635 0.0116532)
(-0.000257487 -0.000257487 0.0117384)
(-0.000439378 -0.000259413 0.01191)
(-0.0006351 -0.000260394 0.0121624)
(-0.000842369 -0.000257029 0.0124548)
(0.000831441 -0.000429529 0.012539)
(0.000634239 -0.000440119 0.0122987)
(0.000441328 -0.000441328 0.0120714)
(0.000259413 -0.000439378 0.01191)
(8.54991e-05 -0.000438046 0.0118284)
(-8.54991e-05 -0.000438046 0.0118284)
(-0.000259413 -0.000439378 0.01191)
(-0.000441328 -0.000441328 0.0120714)
(-0.000634239 -0.000440119 0.0122987)
(-0.000831441 -0.000429529 0.012539)
(0.000805279 -0.000603172 0.0126228)
(0.000626005 -0.000626005 0.0124748)
(0.000440119 -0.000634239 0.0122987)
(0.000260394 -0.0006351 0.0121624)
(8.59938e-05 -0.000635083 0.0120907)
(-8.59938e-05 -0.000635083 0.0120907)
(-0.000260394 -0.0006351 0.0121624)
(-0.000440119 -0.000634239 0.0122987)
(-0.000626005 -0.000626005 0.0124748)
(-0.000805279 -0.000603172 0.0126228)
(0.000762205 -0.000762205 0.012642)
(0.000603172 -0.000805279 0.0126228)
(0.000429529 -0.000831441 0.012539)
(0.000257029 -0.000842369 0.0124548)
(8.51238e-05 -0.000847596 0.0124063)
(-8.51238e-05 -0.000847596 0.0124063)
(-0.000257029 -0.000842369 0.0124548)
(-0.000429529 -0.000831441 0.012539)
(-0.000603172 -0.000805279 0.0126228)
(-0.000762205 -0.000762205 0.012642)
(0.000521256 0.000521256 0.0125142)
(0.000436543 0.000586079 0.0127616)
(0.000328652 0.000630643 0.0128393)
(0.000203406 0.000657388 0.0128432)
(6.85586e-05 0.000670477 0.0128329)
(-6.85586e-05 0.000670477 0.0128329)
(-0.000203406 0.000657388 0.0128432)
(-0.000328652 0.000630643 0.0128393)
(-0.000436543 0.000586079 0.0127616)
(-0.000521256 0.000521256 0.0125142)
(0.000586079 0.000436543 0.0127616)
(0.000489504 0.000489504 0.0128459)
(0.000364336 0.00052284 0.0127911)
(0.000223943 0.000541609 0.0127145)
(7.5379e-05 0.000550433 0.0126673)
(-7.5379e-05 0.000550433 0.0126673)
(-0.000223943 0.000541609 0.0127145)
(-0.000364336 0.00052284 0.0127911)
(-0.000489504 0.000489504 0.0128459)
(-0.000586079 0.000436543 0.0127616)
(0.000630643 0.000328652 0.0128393)
(0.00052284 0.000364336 0.0127911)
(0.000386774 0.000386774 0.0126529)
(0.000236749 0.00039929 0.0125329)
(7.96044e-05 0.000405055 0.012468)
(-7.96044e-05 0.000405055 0.012468)
(-0.000236749 0.00039929 0.0125329)
(-0.000386774 0.000386774 0.0126529)
(-0.00052284 0.000364336 0.0127911)
(-0.000630643 0.000328652 0.0128393)
(0.000657388 0.000203406 0.0128432)
(0.000541609 0.000223943 0.0127145)
(0.00039929 0.000236749 0.0125329)
(0.000243931 0.000243931 0.0123937)
(8.19737e-05 0.00024721 0.012322)
(-8.19737e-05 0.00024721 0.012322)
(-0.000243931 0.000243931 0.0123937)
(-0.00039929 0.000236749 0.0125329)
(-0.000541609 0.000223943 0.0127145)
(-0.000657388 0.000203406 0.0128432)
(0.000670477 6.85586e-05 0.0128329)
(0.000550433 7.5379e-05 0.0126673)
(0.000405055 7.96044e-05 0.012468)
(0.00024721 8.19738e-05 0.012322)
(8.30489e-05 8.30489e-05 0.0122481)
(-8.30489e-05 8.30489e-05 0.0122481)
(-0.00024721 8.19737e-05 0.012322)
(-0.000405055 7.96044e-05 0.012468)
(-0.000550433 7.5379e-05 0.0126673)
(-0.000670477 6.85586e-05 0.0128329)
(0.000670477 -6.85586e-05 0.0128329)
(0.000550433 -7.5379e-05 0.0126673)
(0.000405055 -7.96044e-05 0.012468)
(0.00024721 -8.19737e-05 0.012322)
(8.30489e-05 -8.30489e-05 0.0122481)
(-8.30489e-05 -8.30489e-05 0.0122481)
(-0.00024721 -8.19737e-05 0.012322)
(-0.000405055 -7.96044e-05 0.012468)
(-0.000550433 -7.5379e-05 0.0126673)
(-0.000670477 -6.85586e-05 0.0128329)
(0.000657388 -0.000203406 0.0128432)
(0.000541609 -0.000223943 0.0127145)
(0.00039929 -0.000236749 0.0125329)
(0.000243931 -0.000243931 0.0123937)
(8.19737e-05 -0.00024721 0.012322)
(-8.19737e-05 -0.00024721 0.012322)
(-0.000243931 -0.000243931 0.0123937)
(-0.00039929 -0.000236749 0.0125329)
(-0.000541609 -0.000223943 0.0127145)
(-0.000657388 -0.000203406 0.0128432)
(0.000630643 -0.000328652 0.0128393)
(0.00052284 -0.000364336 0.0127911)
(0.000386774 -0.000386774 0.0126529)
(0.000236749 -0.00039929 0.0125329)
(7.96044e-05 -0.000405055 0.012468)
(-7.96044e-05 -0.000405055 0.012468)
(-0.000236749 -0.00039929 0.0125329)
(-0.000386774 -0.000386774 0.0126529)
(-0.00052284 -0.000364336 0.0127911)
(-0.000630643 -0.000328652 0.0128393)
(0.000586079 -0.000436543 0.0127616)
(0.000489504 -0.000489504 0.0128459)
(0.000364336 -0.00052284 0.0127911)
(0.000223943 -0.000541609 0.0127145)
(7.5379e-05 -0.000550433 0.0126673)
(-7.5379e-05 -0.000550433 0.0126673)
(-0.000223943 -0.000541609 0.0127145)
(-0.000364336 -0.00052284 0.0127911)
(-0.000489504 -0.000489504 0.0128459)
(-0.000586079 -0.000436543 0.0127616)
(0.000521256 -0.000521256 0.0125142)
(0.000436543 -0.000586079 0.0127616)
(0.000328652 -0.000630643 0.0128393)
(0.000203406 -0.000657388 0.0128432)
(6.85586e-05 -0.000670477 0.0128329)
(-6.85586e-05 -0.000670477 0.0128329)
(-0.000203406 -0.000657388 0.0128432)
(-0.000328652 -0.000630643 0.0128393)
(-0.000436543 -0.000586079 0.0127616)
(-0.000521256 -0.000521256 0.0125142)
(0.000217097 0.000217097 0.0127103)
(0.000192244 0.000266751 0.0130718)
(0.000153328 0.000302868 0.0132323)
(9.79891e-05 0.000327535 0.0132881)
(3.35876e-05 0.00033986 0.0133023)
(-3.35876e-05 0.00033986 0.0133023)
(-9.79891e-05 0.000327535 0.0132881)
(-0.000153328 0.000302868 0.0132323)
(-0.000192244 0.000266751 0.0130718)
(-0.000217097 0.000217097 0.0127103)
(0.000266751 0.000192244 0.0130718)
(0.000238275 0.000238275 0.0132843)
(0.000187418 0.000271783 0.0133129)
(0.000119334 0.000293469 0.0132857)
(4.08716e-05 0.000304197 0.0132613)
(-4.08716e-05 0.000304197 0.0132613)
(-0.000119334 0.000293469 0.0132857)
(-0.000187418 0.000271783 0.0133129)
(-0.000238275 0.000238275 0.0132843)
(-0.000266751 0.000192244 0.0130718)
(0.000302868 0.000153328 0.0132323)
(0.000271783 0.000187418 0.0133129)
(0.000213113 0.000213113 0.0132539)
(0.000135361 0.00022969 0.0131793)
(4.63343e-05 0.000237838 0.013135)
(-4.63343e-05 0.000237838 0.013135)
(-0.000135361 0.00022969 0.0131793)
(-0.000213113 0.000213113 0.0132539)
(-0.000271783 0.000187418 0.0133129)
(-0.000302868 0.000153328 0.0132323)
(0.000327535 9.79891e-05 0.0132881)
(0.000293469 0.000119334 0.0132857)
(0.00022969 0.000135361 0.0131793)
(0.000145697 0.000145697 0.0130823)
(4.98515e-05 0.000150752 0.0130297)
(-4.98515e-05 0.000150752 0.0130297)
(-0.000145697 0.000145697 0.0130823)
(-0.00022969 0.000135361 0.0131793)
(-0.000293469 0.000119334 0.0132857)
(-0.000327535 9.79891e-05 0.0132881)
(0.00033986 3.35876e-05 0.0133023)
(0.000304197 4.08716e-05 0.0132613)
(0.000237838 4.63343e-05 0.013135)
(0.000150752 4.98515e-05 0.0130297)
(5.15649e-05 5.15649e-05 0.0129742)
(-5.15649e-05 5.15649e-05 0.0129742)
(-0.000150752 4.98515e-05 0.0130297)
(-0.000237838 4.63343e-05 0.013135)
(-0.000304197 4.08716e-05 0.0132613)
(-0.00033986 3.35875e-05 0.0133023)
(0.00033986 -3.35876e-05 0.0133023)
(0.000304197 -4.08716e-05 0.0132613)
(0.000237838 -4.63343e-05 0.013135)
(0.000150752 -4.98515e-05 0.0130297)
(5.15649e-05 -5.15649e-05 0.0129742)
(-5.15649e-05 -5.15649e-05 0.0129742)
(-0.000150752 -4.98515e-05 0.0130297)
(-0.000237838 -4.63343e-05 0.013135)
(-0.000304197 -4.08716e-05 0.0132613)
(-0.00033986 -3.35876e-05 0.0133023)
(0.000327535 -9.79891e-05 0.0132881)
(0.000293469 -0.000119334 0.0132857)
(0.00022969 -0.000135361 0.0131793)
(0.000145697 -0.000145697 0.0130823)
(4.98515e-05 -0.000150752 0.0130297)
(-4.98515e-05 -0.000150752 0.0130297)
(-0.000145697 -0.000145697 0.0130823)
(-0.00022969 -0.000135361 0.0131793)
(-0.000293469 -0.000119334 0.0132857)
(-0.000327535 -9.7989e-05 0.0132881)
(0.000302868 -0.000153328 0.0132323)
(0.000271783 -0.000187418 0.0133129)
(0.000213113 -0.000213113 0.0132539)
(0.000135361 -0.00022969 0.0131793)
(4.63343e-05 -0.000237838 0.013135)
(-4.63343e-05 -0.000237838 0.013135)
(-0.000135361 -0.00022969 0.0131793)
(-0.000213113 -0.000213113 0.0132539)
(-0.000271783 -0.000187418 0.0133129)
(-0.000302868 -0.000153328 0.0132323)
(0.000266751 -0.000192244 0.0130718)
(0.000238275 -0.000238275 0.0132843)
(0.000187418 -0.000271783 0.0133129)
(0.000119334 -0.000293469 0.0132857)
(4.08716e-05 -0.000304197 0.0132613)
(-4.08716e-05 -0.000304197 0.0132613)
(-0.000119334 -0.000293469 0.0132857)
(-0.000187418 -0.000271783 0.0133129)
(-0.000238275 -0.000238275 0.0132843)
(-0.000266751 -0.000192244 0.0130718)
(0.000217097 -0.000217097 0.0127103)
(0.000192244 -0.000266751 0.0130718)
(0.000153328 -0.000302868 0.0132323)
(9.79891e-05 -0.000327535 0.0132881)
(3.35875e-05 -0.00033986 0.0133023)
(-3.35876e-05 -0.00033986 0.0133023)
(-9.7989e-05 -0.000327535 0.0132881)
(-0.000153328 -0.000302868 0.0132323)
(-0.000192244 -0.000266751 0.0130718)
(-0.000217098 -0.000217098 0.0127103)
(9.19418e-05 9.19418e-05 0.0126356)
(8.39404e-05 0.000116544 0.0130619)
(6.96654e-05 0.000135977 0.0132771)
(4.54984e-05 0.000149993 0.0133714)
(1.5773e-05 0.000157115 0.0134053)
(-1.5773e-05 0.000157115 0.0134053)
(-4.54984e-05 0.000149993 0.0133714)
(-6.96654e-05 0.000135977 0.0132771)
(-8.39404e-05 0.000116544 0.0130619)
(-9.19418e-05 9.19418e-05 0.0126356)
(0.000116544 8.39404e-05 0.0130619)
(0.000109622 0.000109622 0.0133615)
(8.97988e-05 0.000129599 0.0134585)
(5.85702e-05 0.000143213 0.0134777)
(2.02931e-05 0.000150093 0.0134766)
(-2.02931e-05 0.000150093 0.0134766)
(-5.85702e-05 0.000143213 0.0134777)
(-8.97988e-05 0.000129599 0.0134585)
(-0.000109622 0.000109622 0.0133615)
(-0.000116544 8.39404e-05 0.0130619)
(0.000135977 6.96654e-05 0.0132771)
(0.000129599 8.97988e-05 0.0134585)
(0.000105966 0.000105966 0.013476)
(6.90022e-05 0.000116887 0.0134519)
(2.38956e-05 0.000122369 0.0134328)
(-2.38956e-05 0.000122369 0.0134328)
(-6.90022e-05 0.000116887 0.0134519)
(-0.000105965 0.000105966 0.013476)
(-0.000129599 8.97988e-05 0.0134585)
(-0.000135977 6.96654e-05 0.0132771)
(0.000149993 4.54984e-05 0.0133714)
(0.000143213 5.85702e-05 0.0134777)
(0.000116887 6.90022e-05 0.0134519)
(7.60008e-05 7.60008e-05 0.0134075)
(2.63039e-05 7.94904e-05 0.0133805)
(-2.63039e-05 7.94904e-05 0.0133805)
(-7.60008e-05 7.60008e-05 0.0134075)
(-0.000116887 6.90022e-05 0.0134519)
(-0.000143213 5.85702e-05 0.0134777)
(-0.000149993 4.54984e-05 0.0133714)
(0.000157115 1.5773e-05 0.0134053)
(0.000150093 2.02931e-05 0.0134766)
(0.000122369 2.38956e-05 0.0134328)
(7.94904e-05 2.63039e-05 0.0133805)
(2.75e-05 2.75e-05 0.0133507)
(-2.75e-05 2.75e-05 0.0133507)
(-7.94904e-05 2.63039e-05 0.0133805)
(-0.000122369 2.38956e-05 0.0134328)
(-0.000150093 2.02931e-05 0.0134766)
(-0.000157115 1.5773e-05 0.0134053)
(0.000157115 -1.5773e-05 0.0134053)
(0.000150093 -2.02931e-05 0.0134766)
(0.000122369 -2.38956e-05 0.0134328)
(7.94904e-05 -2.63039e-05 0.0133805)
(2.75e-05 -2.75e-05 0.0133507)
(-2.75e-05 -2.75e-05 0.0133507)
(-7.94904e-05 -2.63039e-05 0.0133805)
(-0.000122369 -2.38956e-05 0.0134328)
(-0.000150093 -2.02931e-05 0.0134766)
(-0.000157115 -1.5773e-05 0.0134053)
(0.000149993 -4.54984e-05 0.0133714)
(0.000143213 -5.85702e-05 0.0134777)
(0.000116887 -6.90021e-05 0.0134519)
(7.60008e-05 -7.60008e-05 0.0134075)
(2.63039e-05 -7.94904e-05 0.0133805)
(-2.63039e-05 -7.94904e-05 0.0133805)
(-7.60008e-05 -7.60008e-05 0.0134075)
(-0.000116887 -6.90022e-05 0.0134519)
(-0.000143213 -5.85702e-05 0.0134777)
(-0.000149993 -4.54984e-05 0.0133714)
(0.000135977 -6.96654e-05 0.0132771)
(0.000129599 -8.97988e-05 0.0134585)
(0.000105966 -0.000105965 0.013476)
(6.90022e-05 -0.000116887 0.0134519)
(2.38956e-05 -0.000122369 0.0134328)
(-2.38956e-05 -0.000122369 0.0134328)
(-6.90022e-05 -0.000116887 0.0134519)
(-0.000105965 -0.000105965 0.013476)
(-0.000129599 -8.97988e-05 0.0134585)
(-0.000135977 -6.96654e-05 0.0132771)
(0.000116544 -8.39404e-05 0.0130619)
(0.000109622 -0.000109622 0.0133615)
(8.97988e-05 -0.000129599 0.0134585)
(5.85702e-05 -0.000143213 0.0134777)
(2.02931e-05 -0.000150093 0.0134766)
(-2.02931e-05 -0.000150093 0.0134766)
(-5.85702e-05 -0.000143213 0.0134777)
(-8.97988e-05 -0.000129599 0.0134585)
(-0.000109622 -0.000109622 0.0133615)
(-0.000116544 -8.39404e-05 0.0130619)
(9.19418e-05 -9.19418e-05 0.0126356)
(8.39404e-05 -0.000116544 0.0130619)
(6.96654e-05 -0.000135977 0.0132771)
(4.54984e-05 -0.000149993 0.0133714)
(1.5773e-05 -0.000157115 0.0134053)
(-1.5773e-05 -0.000157115 0.0134053)
(-4.54984e-05 -0.000149993 0.0133714)
(-6.96654e-05 -0.000135977 0.0132771)
(-8.39404e-05 -0.000116544 0.0130619)
(-9.19418e-05 -9.19418e-05 0.0126356)
(3.11073e-05 3.11073e-05 0.0125842)
(3.03223e-05 4.26043e-05 0.0130283)
(2.68087e-05 5.21813e-05 0.0132628)
(1.80921e-05 5.94235e-05 0.0133726)
(6.37815e-06 6.31574e-05 0.013415)
(-6.37815e-06 6.31574e-05 0.013415)
(-1.80921e-05 5.94235e-05 0.0133726)
(-2.68087e-05 5.21813e-05 0.0132628)
(-3.03223e-05 4.26042e-05 0.0130283)
(-3.11073e-05 3.11073e-05 0.0125842)
(4.26042e-05 3.03223e-05 0.0130283)
(4.3289e-05 4.3289e-05 0.0133613)
(3.74972e-05 5.39734e-05 0.0134895)
(2.52507e-05 6.15841e-05 0.0135321)
(8.88145e-06 6.55025e-05 0.0135433)
(-8.88145e-06 6.55025e-05 0.0135433)
(-2.52507e-05 6.15841e-05 0.0135321)
(-3.74972e-05 5.39734e-05 0.0134895)
(-4.3289e-05 4.3289e-05 0.0133613)
(-4.26042e-05 3.03223e-05 0.0130283)
(5.21813e-05 2.68087e-05 0.0132628)
(5.39734e-05 3.74972e-05 0.0134895)
(4.6549e-05 4.65489e-05 0.0135469)
(3.12533e-05 5.28997e-05 0.0135516)
(1.09766e-05 5.61462e-05 0.0135471)
(-1.09766e-05 5.61462e-05 0.0135471)
(-3.12533e-05 5.28997e-05 0.0135516)
(-4.65489e-05 4.65489e-05 0.0135469)
(-5.39734e-05 3.74972e-05 0.0134895)
(-5.21813e-05 2.68087e-05 0.0132628)
(5.94235e-05 1.80921e-05 0.0133726)
(6.15841e-05 2.52507e-05 0.0135321)
(5.28997e-05 3.12533e-05 0.0135516)
(3.54179e-05 3.54179e-05 0.0135387)
(1.24235e-05 3.75309e-05 0.0135277)
(-1.24235e-05 3.75309e-05 0.0135277)
(-3.54179e-05 3.54179e-05 0.0135387)
(-5.28997e-05 3.12533e-05 0.0135516)
(-6.15841e-05 2.52507e-05 0.0135321)
(-5.94235e-05 1.80921e-05 0.0133726)
(6.31574e-05 6.37815e-06 0.013415)
(6.55025e-05 8.88146e-06 0.0135433)
(5.61462e-05 1.09766e-05 0.0135471)
(3.75309e-05 1.24235e-05 0.0135277)
(1.31549e-05 1.31548e-05 0.0135144)
(-1.31548e-05 1.31549e-05 0.0135144)
(-3.75309e-05 1.24236e-05 0.0135277)
(-5.61462e-05 1.09766e-05 0.0135471)
(-6.55025e-05 8.88145e-06 0.0135433)
(-6.31574e-05 6.37814e-06 0.013415)
(6.31574e-05 -6.37815e-06 0.013415)
(6.55025e-05 -8.88144e-06 0.0135433)
(5.61462e-05 -1.09766e-05 0.0135471)
(3.75309e-05 -1.24235e-05 0.0135277)
(1.31549e-05 -1.31548e-05 0.0135144)
(-1.31548e-05 -1.31548e-05 0.0135144)
(-3.75309e-05 -1.24235e-05 0.0135277)
(-5.61462e-05 -1.09766e-05 0.0135471)
(-6.55025e-05 -8.88145e-06 0.0135433)
(-6.31574e-05 -6.37815e-06 0.013415)
(5.94235e-05 -1.80921e-05 0.0133726)
(6.15841e-05 -2.52507e-05 0.0135321)
(5.28997e-05 -3.12533e-05 0.0135516)
(3.54179e-05 -3.54179e-05 0.0135387)
(1.24236e-05 -3.75309e-05 0.0135277)
(-1.24235e-05 -3.75309e-05 0.0135277)
(-3.54179e-05 -3.54179e-05 0.0135387)
(-5.28997e-05 -3.12533e-05 0.0135516)
(-6.15841e-05 -2.52507e-05 0.0135321)
(-5.94235e-05 -1.8092e-05 0.0133726)
(5.21813e-05 -2.68087e-05 0.0132628)
(5.39734e-05 -3.74972e-05 0.0134895)
(4.65489e-05 -4.65489e-05 0.0135469)
(3.12533e-05 -5.28997e-05 0.0135516)
(1.09766e-05 -5.61462e-05 0.0135471)
(-1.09766e-05 -5.61462e-05 0.0135471)
(-3.12533e-05 -5.28997e-05 0.0135516)
(-4.65489e-05 -4.65489e-05 0.0135469)
(-5.39733e-05 -3.74971e-05 0.0134895)
(-5.21813e-05 -2.68087e-05 0.0132628)
(4.26042e-05 -3.03223e-05 0.0130283)
(4.3289e-05 -4.3289e-05 0.0133613)
(3.74972e-05 -5.39734e-05 0.0134895)
(2.52507e-05 -6.1584e-05 0.0135321)
(8.88145e-06 -6.55025e-05 0.0135433)
(-8.88145e-06 -6.55025e-05 0.0135433)
(-2.52507e-05 -6.15841e-05 0.0135321)
(-3.74971e-05 -5.39733e-05 0.0134895)
(-4.32889e-05 -4.32889e-05 0.0133613)
(-4.26042e-05 -3.03223e-05 0.0130283)
(3.11073e-05 -3.11073e-05 0.0125842)
(3.03223e-05 -4.26042e-05 0.0130283)
(2.68087e-05 -5.21813e-05 0.0132628)
(1.80921e-05 -5.94235e-05 0.0133726)
(6.37814e-06 -6.31574e-05 0.013415)
(-6.37815e-06 -6.31574e-05 0.013415)
(-1.8092e-05 -5.94235e-05 0.0133726)
(-2.68087e-05 -5.21813e-05 0.0132628)
(-3.03223e-05 -4.26042e-05 0.0130283)
(-3.11073e-05 -3.11073e-05 0.0125842)
(8.35696e-06 8.35696e-06 0.012562)
(8.88418e-06 1.27562e-05 0.0130106)
(8.50522e-06 1.6639e-05 0.0132518)
(5.95283e-06 1.97424e-05 0.0133677)
(2.14281e-06 2.13653e-05 0.0134135)
(-2.1428e-06 2.13653e-05 0.0134135)
(-5.95283e-06 1.97425e-05 0.0133677)
(-8.50523e-06 1.6639e-05 0.0132518)
(-8.88418e-06 1.27562e-05 0.0130106)
(-8.35696e-06 8.35697e-06 0.012562)
(1.27562e-05 8.88418e-06 0.0130106)
(1.42722e-05 1.42722e-05 0.0133557)
(1.31987e-05 1.9004e-05 0.0134969)
(9.20336e-06 2.25452e-05 0.0135501)
(3.29215e-06 2.44051e-05 0.0135671)
(-3.29214e-06 2.44051e-05 0.0135671)
(-9.20335e-06 2.25452e-05 0.0135501)
(-1.31987e-05 1.90041e-05 0.0134969)
(-1.42723e-05 1.42723e-05 0.0133557)
(-1.27562e-05 8.88419e-06 0.0130106)
(1.6639e-05 8.50523e-06 0.0132518)
(1.9004e-05 1.31987e-05 0.0134969)
(1.74171e-05 1.74171e-05 0.0135727)
(1.2088e-05 2.05077e-05 0.0135912)
(4.31074e-06 2.21198e-05 0.0135941)
(-4.31073e-06 2.21198e-05 0.0135941)
(-1.2088e-05 2.05077e-05 0.0135912)
(-1.74171e-05 1.74171e-05 0.0135727)
(-1.9004e-05 1.31987e-05 0.0134969)
(-1.6639e-05 8.50523e-06 0.0132518)
(1.97424e-05 5.95283e-06 0.0133677)
(2.25452e-05 9.20337e-06 0.0135501)
(2.05077e-05 1.2088e-05 0.0135912)
(1.41715e-05 1.41715e-05 0.0135941)
(5.04291e-06 1.52503e-05 0.0135913)
(-5.0429e-06 1.52503e-05 0.0135913)
(-1.41715e-05 1.41715e-05 0.0135941)
(-2.05077e-05 1.2088e-05 0.0135912)
(-2.25452e-05 9.20335e-06 0.0135501)
(-1.97425e-05 5.95283e-06 0.0133677)
(2.13653e-05 2.14281e-06 0.0134135)
(2.44051e-05 3.29215e-06 0.0135671)
(2.21198e-05 4.31074e-06 0.0135941)
(1.52503e-05 5.04291e-06 0.0135913)
(5.42084e-06 5.42084e-06 0.0135866)
(-5.42083e-06 5.42084e-06 0.0135866)
(-1.52503e-05 5.04291e-06 0.0135913)
(-2.21198e-05 4.31074e-06 0.0135941)
(-2.44051e-05 3.29214e-06 0.0135671)
(-2.13653e-05 2.1428e-06 0.0134135)
(2.13653e-05 -2.1428e-06 0.0134135)
(2.44051e-05 -3.29214e-06 0.0135671)
(2.21198e-05 -4.31073e-06 0.0135941)
(1.52503e-05 -5.0429e-06 0.0135913)
(5.42084e-06 -5.42083e-06 0.0135866)
(-5.42083e-06 -5.42083e-06 0.0135866)
(-1.52503e-05 -5.0429e-06 0.0135913)
(-2.21198e-05 -4.31073e-06 0.0135941)
(-2.44051e-05 -3.29214e-06 0.0135671)
(-2.13653e-05 -2.1428e-06 0.0134135)
(1.97425e-05 -5.95283e-06 0.0133677)
(2.25452e-05 -9.20335e-06 0.0135501)
(2.05077e-05 -1.2088e-05 0.0135912)
(1.41715e-05 -1.41715e-05 0.0135941)
(5.04291e-06 -1.52503e-05 0.0135913)
(-5.0429e-06 -1.52503e-05 0.0135913)
(-1.41715e-05 -1.41715e-05 0.0135941)
(-2.05077e-05 -1.2088e-05 0.0135912)
(-2.25452e-05 -9.20335e-06 0.0135501)
(-1.97424e-05 -5.95282e-06 0.0133677)
(1.6639e-05 -8.50523e-06 0.0132518)
(1.90041e-05 -1.31987e-05 0.0134969)
(1.74171e-05 -1.74171e-05 0.0135727)
(1.2088e-05 -2.05077e-05 0.0135912)
(4.31074e-06 -2.21198e-05 0.0135941)
(-4.31073e-06 -2.21198e-05 0.0135941)
(-1.2088e-05 -2.05077e-05 0.0135912)
(-1.74171e-05 -1.74171e-05 0.0135727)
(-1.9004e-05 -1.31987e-05 0.0134969)
(-1.6639e-05 -8.50522e-06 0.0132518)
(1.27562e-05 -8.88418e-06 0.0130106)
(1.42723e-05 -1.42723e-05 0.0133557)
(1.31987e-05 -1.90041e-05 0.0134969)
(9.20336e-06 -2.25452e-05 0.0135501)
(3.29214e-06 -2.44051e-05 0.0135671)
(-3.29214e-06 -2.44051e-05 0.0135671)
(-9.20335e-06 -2.25452e-05 0.0135501)
(-1.31987e-05 -1.9004e-05 0.0134969)
(-1.42723e-05 -1.42722e-05 0.0133557)
(-1.27562e-05 -8.88418e-06 0.0130106)
(8.35696e-06 -8.35696e-06 0.012562)
(8.88419e-06 -1.27562e-05 0.0130106)
(8.50523e-06 -1.6639e-05 0.0132518)
(5.95283e-06 -1.97425e-05 0.0133677)
(2.1428e-06 -2.13653e-05 0.0134135)
(-2.1428e-06 -2.13653e-05 0.0134135)
(-5.95282e-06 -1.97424e-05 0.0133677)
(-8.50522e-06 -1.6639e-05 0.0132518)
(-8.88419e-06 -1.27562e-05 0.0130106)
(-8.35696e-06 -8.35696e-06 0.012562)
(1.82457e-06 1.82457e-06 0.0125526)
(2.21739e-06 3.27022e-06 0.0130019)
(2.37156e-06 4.60992e-06 0.0132448)
(1.73332e-06 5.74434e-06 0.0133628)
(6.40964e-07 6.34251e-06 0.0134099)
(-6.40965e-07 6.34251e-06 0.0134099)
(-1.73332e-06 5.74433e-06 0.0133628)
(-2.37156e-06 4.60991e-06 0.0132448)
(-2.21738e-06 3.27021e-06 0.0130019)
(-1.82456e-06 1.82457e-06 0.0125526)
(3.27022e-06 2.21739e-06 0.0130019)
(4.1437e-06 4.1437e-06 0.0133506)
(4.12779e-06 5.9248e-06 0.0134966)
(2.9838e-06 7.31646e-06 0.013554)
(1.08686e-06 8.05927e-06 0.0135735)
(-1.08686e-06 8.05927e-06 0.0135735)
(-2.98381e-06 7.31646e-06 0.013554)
(-4.12779e-06 5.9248e-06 0.0134966)
(-4.14369e-06 4.1437e-06 0.0133506)
(-3.27021e-06 2.21738e-06 0.0130019)
(4.60992e-06 2.37156e-06 0.0132448)
(5.92481e-06 4.12779e-06 0.0134966)
(5.78872e-06 5.78872e-06 0.0135798)
(4.15113e-06 7.05455e-06 0.0136043)
(1.5031e-06 7.72615e-06 0.0136105)
(-1.5031e-06 7.72615e-06 0.0136105)
(-4.15113e-06 7.05455e-06 0.0136043)
(-5.78872e-06 5.78872e-06 0.0135798)
(-5.9248e-06 4.12779e-06 0.0134966)
(-4.60991e-06 2.37156e-06 0.0132448)
(5.74434e-06 1.73332e-06 0.0133628)
(7.31647e-06 2.9838e-06 0.013554)
(7.05455e-06 4.15113e-06 0.0136043)
(5.02695e-06 5.02695e-06 0.0136143)
(1.81405e-06 5.48867e-06 0.0136153)
(-1.81405e-06 5.48867e-06 0.0136153)
(-5.02694e-06 5.02695e-06 0.0136143)
(-7.05455e-06 4.15114e-06 0.0136043)
(-7.31646e-06 2.98381e-06 0.013554)
(-5.74433e-06 1.73332e-06 0.0133628)
(6.34251e-06 6.40966e-07 0.0134099)
(8.05927e-06 1.08686e-06 0.0135735)
(7.72615e-06 1.5031e-06 0.0136105)
(5.48867e-06 1.81405e-06 0.0136153)
(1.97762e-06 1.97762e-06 0.0136146)
(-1.97762e-06 1.97763e-06 0.0136146)
(-5.48866e-06 1.81405e-06 0.0136153)
(-7.72614e-06 1.5031e-06 0.0136105)
(-8.05926e-06 1.08686e-06 0.0135735)
(-6.34251e-06 6.40962e-07 0.0134099)
(6.34251e-06 -6.40967e-07 0.0134099)
(8.05926e-06 -1.08686e-06 0.0135735)
(7.72615e-06 -1.5031e-06 0.0136105)
(5.48867e-06 -1.81405e-06 0.0136153)
(1.97763e-06 -1.97762e-06 0.0136146)
(-1.97762e-06 -1.97762e-06 0.0136146)
(-5.48866e-06 -1.81404e-06 0.0136153)
(-7.72614e-06 -1.5031e-06 0.0136105)
(-8.05926e-06 -1.08686e-06 0.0135735)
(-6.34251e-06 -6.40966e-07 0.0134099)
(5.74433e-06 -1.73332e-06 0.0133628)
(7.31646e-06 -2.98381e-06 0.013554)
(7.05456e-06 -4.15113e-06 0.0136043)
(5.02695e-06 -5.02694e-06 0.0136143)
(1.81405e-06 -5.48866e-06 0.0136153)
(-1.81404e-06 -5.48866e-06 0.0136153)
(-5.02694e-06 -5.02694e-06 0.0136143)
(-7.05455e-06 -4.15113e-06 0.0136043)
(-7.31646e-06 -2.98381e-06 0.013554)
(-5.74433e-06 -1.73332e-06 0.0133628)
(4.60991e-06 -2.37156e-06 0.0132448)
(5.9248e-06 -4.12778e-06 0.0134966)
(5.78872e-06 -5.78871e-06 0.0135798)
(4.15114e-06 -7.05455e-06 0.0136043)
(1.5031e-06 -7.72614e-06 0.0136105)
(-1.5031e-06 -7.72614e-06 0.0136105)
(-4.15114e-06 -7.05455e-06 0.0136043)
(-5.78872e-06 -5.78872e-06 0.0135798)
(-5.92479e-06 -4.12778e-06 0.0134966)
(-4.60991e-06 -2.37155e-06 0.0132448)
(3.27022e-06 -2.21738e-06 0.0130019)
(4.1437e-06 -4.14369e-06 0.0133506)
(4.12779e-06 -5.92479e-06 0.0134966)
(2.98381e-06 -7.31646e-06 0.013554)
(1.08686e-06 -8.05926e-06 0.0135735)
(-1.08686e-06 -8.05926e-06 0.0135735)
(-2.98381e-06 -7.31646e-06 0.013554)
(-4.12778e-06 -5.92479e-06 0.0134966)
(-4.14369e-06 -4.14368e-06 0.0133506)
(-3.27022e-06 -2.21738e-06 0.0130019)
(1.82457e-06 -1.82456e-06 0.0125526)
(2.21739e-06 -3.27021e-06 0.0130019)
(2.37156e-06 -4.60991e-06 0.0132448)
(1.73332e-06 -5.74433e-06 0.0133628)
(6.40965e-07 -6.34251e-06 0.0134099)