/*--------------------------------*- C++ -*----------------------------------*\
| =========                 |                                                 |
| \\      /  F ield         | OpenFOAM: The Open Source CFD Toolbox           |
|  \\    /   O peration     | Version:  2412                                  |
|   \\  /    A nd           | Website:  www.openfoam.com                      |
|    \\/     M anipulation  |                                                 |
\*---------------------------------------------------------------------------*/
FoamFile
{
    version     2.0;
    format      ascii;
    arch        "LSB;label=32;scalar=64";
    class       surfaceScalarField;
    location    "0.497";
    object      phi;
}
// * * * * * * * * * * * * * * * * * * * * * * * * * * * * * * * * * * * * * //

dimensions      [0 3 -1 0 0 0 0];

oriented        oriented;

internalField   nonuniform List<scalar> 
43700
(
3.87762e-07
3.87763e-07
4.71488e-05
-4.61225e-07
-4.61226e-07
3.06032e-07
3.83924e-07
5.1098e-05
-4.61811e-07
2.11186e-07
3.84181e-07
5.41122e-05
-4.58448e-07
1.07693e-07
3.84452e-07
5.61467e-05
-4.56477e-07
1.14376e-13
3.84498e-07
5.71716e-05
-4.55547e-07
-1.07693e-07
3.84499e-07
5.71716e-05
-4.55548e-07
-2.11186e-07
3.84453e-07
5.61467e-05
-4.56479e-07
-3.06032e-07
3.84183e-07
5.41122e-05
-4.58452e-07
-3.87759e-07
3.83928e-07
5.1098e-05
-4.61817e-07
3.87774e-07
4.71488e-05
-4.61224e-07
-4.61237e-07
3.83923e-07
3.06033e-07
5.1098e-05
-4.61809e-07
2.98128e-07
2.98129e-07
5.47559e-05
2.04187e-07
2.97539e-07
5.75496e-05
1.03827e-07
2.98173e-07
5.94363e-05
9.03281e-13
2.98638e-07
6.03869e-05
-1.03825e-07
2.98638e-07
6.03869e-05
-2.04186e-07
2.98172e-07
5.94363e-05
-2.98126e-07
2.97537e-07
5.75496e-05
-3.83917e-07
2.98126e-07
5.47559e-05
3.06028e-07
5.1098e-05
-4.618e-07
3.8418e-07
2.11187e-07
5.41122e-05
-4.58446e-07
2.97539e-07
2.04188e-07
5.75496e-05
2.02942e-07
2.02943e-07
6.01765e-05
1.02893e-07
2.03235e-07
6.19513e-05
1.0601e-12
2.03629e-07
6.28457e-05
-1.02891e-07
2.03629e-07
6.28457e-05
-2.0294e-07
2.03236e-07
6.19513e-05
-2.97537e-07
2.02944e-07
6.01765e-05
-3.84176e-07
2.04189e-07
5.75496e-05
2.11186e-07
5.41122e-05
-4.58438e-07
3.8445e-07
1.07695e-07
5.61467e-05
-4.56474e-07
2.98173e-07
1.03828e-07
5.94363e-05
2.03234e-07
1.02893e-07
6.19513e-05
1.02928e-07
1.02929e-07
6.36509e-05
1.42462e-12
1.03115e-07
6.45076e-05
-1.02925e-07
1.03116e-07
6.45076e-05
-2.03232e-07
1.0293e-07
6.36509e-05
-2.98171e-07
1.02894e-07
6.19513e-05
-3.84448e-07
1.03829e-07
5.94363e-05
1.07695e-07
5.61467e-05
-4.56467e-07
3.84496e-07
1.37241e-12
5.71716e-05
-4.55544e-07
2.98639e-07
1.68763e-12
6.03869e-05
2.03628e-07
1.92417e-12
6.28457e-05
1.03115e-07
2.20256e-12
6.45076e-05
1.67298e-12
2.45334e-12
6.53455e-05
-1.03111e-07
2.67446e-12
6.53455e-05
-2.03625e-07
2.90844e-12
6.45076e-05
-2.98636e-07
3.1523e-12
6.28457e-05
-3.84494e-07
3.40819e-12
6.03869e-05
2.85606e-12
5.71716e-05
-4.55537e-07
3.84496e-07
-1.07692e-07
5.71716e-05
-4.55544e-07
2.98639e-07
-1.03824e-07
6.03869e-05
2.03628e-07
-1.0289e-07
6.28457e-05
1.03115e-07
-1.02925e-07
6.45076e-05
1.88678e-12
-1.03111e-07
6.53455e-05
-1.03111e-07
-1.0311e-07
6.53455e-05
-2.03625e-07
-1.02924e-07
6.45076e-05
-2.98636e-07
-1.02888e-07
6.28457e-05
-3.84494e-07
-1.03822e-07
6.03869e-05
-1.0769e-07
5.71716e-05
-4.55538e-07
3.8445e-07
-2.11185e-07
5.61467e-05
-4.56474e-07
2.98173e-07
-2.04184e-07
5.94363e-05
2.03235e-07
-2.02939e-07
6.19513e-05
1.02929e-07
-2.0323e-07
6.36509e-05
2.08259e-12
-2.03624e-07
6.45076e-05
-1.02925e-07
-2.03624e-07
6.45076e-05
-2.03231e-07
-2.0323e-07
6.36509e-05
-2.9817e-07
-2.02937e-07
6.19513e-05
-3.84448e-07
-2.04182e-07
5.94363e-05
-2.11181e-07
5.61467e-05
-4.56468e-07
3.84181e-07
-3.06031e-07
5.41122e-05
-4.58446e-07
2.97539e-07
-2.98126e-07
5.75496e-05
2.02943e-07
-2.97535e-07
6.01765e-05
1.02893e-07
-2.98169e-07
6.19513e-05
2.1833e-12
-2.98634e-07
6.28457e-05
-1.02889e-07
-2.98634e-07
6.28457e-05
-2.02938e-07
-2.98169e-07
6.19513e-05
-2.97535e-07
-2.97534e-07
6.01765e-05
-3.84177e-07
-2.98123e-07
5.75496e-05
-3.06028e-07
5.41122e-05
-4.5844e-07
3.83925e-07
-3.8776e-07
5.1098e-05
-4.61809e-07
2.98129e-07
-3.83921e-07
5.47559e-05
2.04188e-07
-3.84177e-07
5.75496e-05
1.03828e-07
-3.84446e-07
5.94363e-05
2.15709e-12
-3.84491e-07
6.03869e-05
-1.03824e-07
-3.84491e-07
6.03869e-05
-2.04184e-07
-3.84445e-07
5.94363e-05
-2.98125e-07
-3.84175e-07
5.75496e-05
-3.83919e-07
-3.83918e-07
5.47559e-05
-3.87757e-07
5.1098e-05
-4.61803e-07
3.87763e-07
4.71488e-05
-4.61222e-07
-4.61224e-07
3.06035e-07
5.1098e-05
-4.61806e-07
2.11188e-07
5.41122e-05
-4.58442e-07
1.07695e-07
5.61467e-05
-4.5647e-07
2.09208e-12
5.71716e-05
-4.5554e-07
-1.07691e-07
5.71716e-05
-4.55539e-07
-2.11183e-07
5.61467e-05
-4.56469e-07
-3.06029e-07
5.41122e-05
-4.58441e-07
-3.87758e-07
5.1098e-05
-4.61803e-07
4.71488e-05
-4.61219e-07
-4.61218e-07
1.06601e-06
1.06601e-06
4.75549e-05
-1.26907e-06
-1.26907e-06
8.39134e-07
1.05512e-06
5.15381e-05
-1.26839e-06
5.78904e-07
1.05582e-06
5.45786e-05
-1.26207e-06
2.95261e-07
1.05734e-06
5.6631e-05
-1.25797e-06
1.41704e-12
1.05812e-06
5.76649e-05
-1.25611e-06
-2.95259e-07
1.05812e-06
5.76649e-05
-1.25611e-06
-5.78903e-07
1.05734e-06
5.6631e-05
-1.25797e-06
-8.39133e-07
1.05582e-06
5.45786e-05
-1.26207e-06
-1.06601e-06
1.05512e-06
5.15381e-05
-1.26838e-06
1.066e-06
4.75549e-05
-1.26907e-06
-1.26907e-06
1.05512e-06
8.39135e-07
5.15381e-05
-1.26839e-06
8.19037e-07
8.19038e-07
5.52281e-05
5.60775e-07
8.1727e-07
5.80464e-05
2.85088e-07
8.19552e-07
5.99498e-05
1.74225e-12
8.2134e-07
6.09088e-05
-2.85084e-07
8.2134e-07
6.09088e-05
-5.60771e-07
8.19552e-07
5.99498e-05
-8.19034e-07
8.1727e-07
5.80464e-05
-1.05512e-06
8.19039e-07
5.52281e-05
8.3914e-07
5.15381e-05
-1.26839e-06
1.05582e-06
5.78905e-07
5.45786e-05
-1.26207e-06
8.17269e-07
5.60776e-07
5.80464e-05
5.57157e-07
5.57158e-07
6.06967e-05
2.82382e-07
5.58279e-07
6.24873e-05
2.19274e-12
5.59693e-07
6.33897e-05
-2.82378e-07
5.59693e-07
6.33897e-05
-5.57153e-07
5.58278e-07
6.24873e-05
-8.17264e-07
5.57158e-07
6.06967e-05
-1.05582e-06
5.60776e-07
5.80464e-05
5.78908e-07
5.45786e-05
-1.26207e-06
1.05734e-06
2.95262e-07
5.6631e-05
-1.25797e-06
8.19551e-07
2.85089e-07
5.99498e-05
5.58278e-07
2.82383e-07
6.24873e-05
2.8262e-07
2.8262e-07
6.42022e-05
2.45407e-12
2.83293e-07
6.50667e-05
-2.82615e-07
2.83293e-07
6.50667e-05
-5.58273e-07
2.8262e-07
6.42022e-05
-8.19546e-07
2.82383e-07
6.24873e-05
-1.05733e-06
2.85089e-07
5.99498e-05
2.95264e-07
5.6631e-05
-1.25797e-06
1.05812e-06
2.43168e-12
5.76649e-05
-1.25612e-06
8.21339e-07
2.74658e-12
6.09088e-05
5.59692e-07
2.92913e-12
6.33897e-05
2.83292e-07
3.12596e-12
6.50667e-05
2.6462e-12
3.25811e-12
6.59121e-05
-2.83287e-07
3.34276e-12
6.59121e-05
-5.59687e-07
3.43752e-12
6.50667e-05
-8.21334e-07
3.49531e-12
6.33897e-05
-1.05812e-06
3.60405e-12
6.09088e-05
3.9843e-12
5.76649e-05
-1.25611e-06
1.05812e-06
-2.95257e-07
5.76649e-05
-1.25612e-06
8.21339e-07
-2.85083e-07
6.09088e-05
5.59692e-07
-2.82377e-07
6.33897e-05
2.83292e-07
-2.82614e-07
6.50667e-05
2.74602e-12
-2.83286e-07
6.59121e-05
-2.83287e-07
-2.83286e-07
6.59121e-05
-5.59687e-07
-2.82613e-07
6.50667e-05
-8.21334e-07
-2.82376e-07
6.33897e-05
-1.05812e-06
-2.85082e-07
6.09088e-05
-2.95255e-07
5.76649e-05
-1.25611e-06
1.05734e-06
-5.78901e-07
5.6631e-05
-1.25797e-06
8.1955e-07
-5.6077e-07
5.99498e-05
5.58278e-07
-5.57152e-07
6.24873e-05
2.8262e-07
-5.58272e-07
6.42022e-05
2.863e-12
-5.59686e-07
6.50667e-05
-2.82614e-07
-5.59686e-07
6.50667e-05
-5.58273e-07
-5.58271e-07
6.42022e-05
-8.19546e-07
-5.5715e-07
6.24873e-05
-1.05733e-06
-5.60768e-07
5.99498e-05
-5.78898e-07
5.6631e-05
-1.25797e-06
1.05582e-06
-8.39131e-07
5.45786e-05
-1.26207e-06
8.17269e-07
-8.19032e-07
5.80464e-05
5.57158e-07
-8.17263e-07
6.06967e-05
2.82383e-07
-8.19544e-07
6.24873e-05
2.9055e-12
-8.21332e-07
6.33897e-05
-2.82377e-07
-8.21332e-07
6.33897e-05
-5.57152e-07
-8.19543e-07
6.24873e-05
-8.17264e-07
-8.17261e-07
6.06967e-05
-1.05581e-06
-8.19029e-07
5.80464e-05
-8.39127e-07
5.45786e-05
-1.26207e-06
1.05512e-06
-1.066e-06
5.15381e-05
-1.26839e-06
8.19038e-07
-1.05512e-06
5.52281e-05
5.60775e-07
-1.05582e-06
5.80464e-05
2.85089e-07
-1.05733e-06
5.99498e-05
2.81491e-12
-1.05812e-06
6.09088e-05
-2.85083e-07
-1.05812e-06
6.09088e-05
-5.6077e-07
-1.05733e-06
5.99498e-05
-8.19031e-07
-1.05581e-06
5.80464e-05
-1.05511e-06
-1.05511e-06
5.52281e-05
-1.066e-06
5.15381e-05
-1.26838e-06
1.06601e-06
4.75549e-05
-1.26907e-06
-1.26907e-06
8.39136e-07
5.15381e-05
-1.26838e-06
5.78906e-07
5.45786e-05
-1.26207e-06
2.95262e-07
5.6631e-05
-1.25797e-06
2.57914e-12
5.76649e-05
-1.25611e-06
-2.95257e-07
5.76649e-05
-1.25611e-06
-5.78899e-07
5.6631e-05
-1.25797e-06
-8.39128e-07
5.45786e-05
-1.26206e-06
-1.066e-06
5.15381e-05
-1.26838e-06
4.75549e-05
-1.26907e-06
-1.26907e-06
1.68144e-06
1.68144e-06
4.81986e-05
-2.00326e-06
-2.00326e-06
1.32203e-06
1.66685e-06
5.22359e-05
-2.00521e-06
9.11548e-07
1.6681e-06
5.53176e-05
-1.99657e-06
4.64774e-07
1.67057e-06
5.73978e-05
-1.99055e-06
-2.48965e-12
1.67186e-06
5.84456e-05
-1.98785e-06
-4.64779e-07
1.67186e-06
5.84456e-05
-1.98785e-06
-9.11554e-07
1.67057e-06
5.73978e-05
-1.99055e-06
-1.32204e-06
1.6681e-06
5.53176e-05
-1.99658e-06
-1.68145e-06
1.66685e-06
5.22359e-05
-2.00521e-06
1.68145e-06
4.81986e-05
-2.00327e-06
-2.00327e-06
1.66685e-06
1.32203e-06
5.22359e-05
-2.00521e-06
1.29287e-06
1.29287e-06
5.5976e-05
8.84646e-07
1.29013e-06
5.88326e-05
4.49557e-07
1.29361e-06
6.07618e-05
-1.61116e-12
1.29635e-06
6.17339e-05
-4.4956e-07
1.29635e-06
6.17339e-05
-8.84649e-07
1.29361e-06
6.07618e-05
-1.29288e-06
1.29013e-06
5.88326e-05
-1.66685e-06
1.29288e-06
5.5976e-05
1.32203e-06
5.22359e-05
-2.0052e-06
1.6681e-06
9.11551e-07
5.53176e-05
-1.99657e-06
1.29012e-06
8.84648e-07
5.88326e-05
8.79003e-07
8.79005e-07
6.1519e-05
4.4534e-07
8.80661e-07
6.33339e-05
-6.31643e-13
8.82791e-07
6.42486e-05
-4.45341e-07
8.82791e-07
6.42486e-05
-8.79005e-07
8.80663e-07
6.33339e-05
-1.29013e-06
8.79008e-07
6.1519e-05
-1.6681e-06
8.84651e-07
5.88326e-05
9.11555e-07
5.53176e-05
-1.99657e-06
1.67056e-06
4.64777e-07
5.73978e-05
-1.99055e-06
1.29361e-06
4.4956e-07
6.07618e-05
8.8066e-07
4.45342e-07
6.33339e-05
4.45664e-07
4.45665e-07
6.50722e-05
2.95975e-13
4.46668e-07
6.59485e-05
-4.45663e-07
4.46669e-07
6.59485e-05
-8.80659e-07
4.45667e-07
6.50722e-05
-1.29361e-06
4.45345e-07
6.33339e-05
-1.67056e-06
4.49563e-07
6.07618e-05
4.64781e-07
5.73978e-05
-1.99054e-06
1.67186e-06
8.35473e-13
5.84456e-05
-1.98785e-06
1.29635e-06
1.02873e-12
6.17339e-05
8.82789e-07
1.44895e-12
6.42486e-05
4.46667e-07
1.87885e-12
6.59485e-05
9.35114e-13
2.30967e-12
6.68054e-05
-4.46665e-07
2.76976e-12
6.68054e-05
-8.82787e-07
3.33997e-12
6.59485e-05
-1.29634e-06
3.95539e-12
6.42486e-05
-1.67186e-06
4.59055e-12
6.17339e-05
4.8275e-12
5.84456e-05
-1.98784e-06
1.67186e-06
-4.64776e-07
5.84456e-05
-1.98785e-06
1.29635e-06
-4.49557e-07
6.17339e-05
8.82789e-07
-4.45339e-07
6.42486e-05
4.46667e-07
-4.45661e-07
6.59485e-05
1.366e-12
-4.46664e-07
6.68054e-05
-4.46664e-07
-4.46663e-07
6.68054e-05
-8.82787e-07
-4.4566e-07
6.59485e-05
-1.29634e-06
-4.45336e-07
6.42486e-05
-1.67186e-06
-4.49554e-07
6.17339e-05
-4.64771e-07
5.84456e-05
-1.98784e-06
1.67057e-06
-9.1155e-07
5.73978e-05
-1.99055e-06
1.29361e-06
-8.84646e-07
6.07618e-05
8.80661e-07
-8.79002e-07
6.33339e-05
4.45665e-07
-8.80657e-07
6.50722e-05
1.69475e-12
-8.82786e-07
6.59485e-05
-4.45661e-07
-8.82785e-07
6.59485e-05
-8.80657e-07
-8.80656e-07
6.50722e-05
-1.2936e-06
-8.79e-07
6.33339e-05
-1.67056e-06
-8.84642e-07
6.07618e-05
-9.11544e-07
5.73978e-05
-1.99054e-06
1.6681e-06
-1.32203e-06
5.53176e-05
-1.99657e-06
1.29013e-06
-1.29287e-06
5.88326e-05
8.79005e-07
-1.29012e-06
6.1519e-05
4.45342e-07
-1.2936e-06
6.33339e-05
1.84232e-12
-1.29634e-06
6.42486e-05
-4.45338e-07
-1.29634e-06
6.42486e-05
-8.79002e-07
-1.2936e-06
6.33339e-05
-1.29012e-06
-1.29012e-06
6.1519e-05
-1.6681e-06
-1.29287e-06
5.88326e-05
-1.32202e-06
5.53176e-05
-1.99657e-06
1.66685e-06
-1.68144e-06
5.22359e-05
-2.00521e-06
1.29288e-06
-1.66685e-06
5.5976e-05
8.84649e-07
-1.6681e-06
5.88326e-05
4.4956e-07
-1.67056e-06
6.07618e-05
1.8896e-12
-1.67186e-06
6.17339e-05
-4.49556e-07
-1.67186e-06
6.17339e-05
-8.84644e-07
-1.67056e-06
6.07618e-05
-1.29287e-06
-1.66809e-06
5.88326e-05
-1.66684e-06
-1.66684e-06
5.5976e-05
-1.68144e-06
5.22359e-05
-2.0052e-06
1.68145e-06
4.81986e-05
-2.00326e-06
-2.00326e-06
1.32203e-06
5.22359e-05
-2.0052e-06
9.11552e-07
5.53176e-05
-1.99657e-06
4.64778e-07
5.73978e-05
-1.99054e-06
1.44489e-12
5.84456e-05
-1.98784e-06
-4.64774e-07
5.84456e-05
-1.98784e-06
-9.11547e-07
5.73978e-05
-1.99054e-06
-1.32203e-06
5.53176e-05
-1.99657e-06
-1.68144e-06
5.22359e-05
-2.0052e-06
4.81986e-05
-2.00326e-06
-2.00326e-06
2.1021e-06
2.1021e-06
4.90054e-05
-2.50554e-06
-2.50554e-06
1.65195e-06
2.08384e-06
5.31101e-05
-2.50791e-06
1.13884e-06
2.08542e-06
5.62432e-05
-2.49787e-06
5.80622e-07
2.0887e-06
5.8358e-05
-2.4907e-06
-3.46948e-12
2.09047e-06
5.94233e-05
-2.48752e-06
-5.80629e-07
2.09047e-06
5.94233e-05
-2.48752e-06
-1.13885e-06
2.08869e-06
5.8358e-05
-2.4907e-06
-1.65196e-06
2.08542e-06
5.62432e-05
-2.49787e-06
-2.10211e-06
2.08384e-06
5.31101e-05
-2.50792e-06
2.10211e-06
4.90054e-05
-2.50554e-06
-2.50554e-06
2.08384e-06
1.65196e-06
5.31101e-05
-2.50791e-06
1.61567e-06
1.61567e-06
5.69123e-05
1.10521e-06
1.61212e-06
5.98164e-05
5.61544e-07
1.61655e-06
6.17776e-05
-2.59362e-12
1.62007e-06
6.27658e-05
-5.61549e-07
1.62007e-06
6.27658e-05
-1.10521e-06
1.61655e-06
6.17776e-05
-1.61568e-06
1.61212e-06
5.98164e-05
-2.08384e-06
1.61568e-06
5.69123e-05
1.65197e-06
5.31101e-05
-2.50792e-06
2.08541e-06
1.13884e-06
5.62432e-05
-2.49787e-06
1.61211e-06
1.10521e-06
5.98164e-05
1.09799e-06
1.09799e-06
6.25472e-05
5.56165e-07
1.10008e-06
6.43922e-05
-1.57128e-12
1.10279e-06
6.53221e-05
-5.56168e-07
1.10279e-06
6.53221e-05
-1.09799e-06
1.10008e-06
6.43922e-05
-1.61211e-06
1.098e-06
6.25472e-05
-2.08541e-06
1.10521e-06
5.98164e-05
1.13885e-06
5.62432e-05
-2.49787e-06
2.08869e-06
5.80626e-07
5.8358e-05
-2.49069e-06
1.61655e-06
5.61547e-07
6.17776e-05
1.10008e-06
5.56167e-07
6.43922e-05
5.56563e-07
5.56565e-07
6.61592e-05
-8.49478e-13
5.57836e-07
6.705e-05
-5.56564e-07
5.57836e-07
6.705e-05
-1.10008e-06
5.56566e-07
6.61592e-05
-1.61655e-06
5.56169e-07
6.43922e-05
-2.08869e-06
5.6155e-07
6.17776e-05
5.8063e-07
5.8358e-05
-2.49069e-06
2.09047e-06
4.67493e-13
5.94233e-05
-2.48752e-06
1.62007e-06
4.03551e-13
6.27658e-05
1.10279e-06
8.6105e-13
6.53221e-05
5.57834e-07
1.21167e-12
6.705e-05
-3.59918e-13
1.52196e-12
6.79211e-05
-5.57834e-07
1.87174e-12
6.79211e-05
-1.10279e-06
2.40142e-12
6.705e-05
-1.62007e-06
3.1034e-12
6.53221e-05
-2.09047e-06
3.82232e-12
6.27658e-05
4.06856e-12
5.94233e-05
-2.48751e-06
2.09047e-06
-5.80625e-07
5.94233e-05
-2.48752e-06
1.62007e-06
-5.61546e-07
6.27658e-05
1.10279e-06
-5.56165e-07
6.53221e-05
5.57834e-07
-5.56562e-07
6.705e-05
-2.09273e-14
-5.57833e-07
6.79211e-05
-5.57834e-07
-5.57832e-07
6.79211e-05
-1.10279e-06
-5.56561e-07
6.705e-05
-1.62007e-06
-5.56163e-07
6.53221e-05
-2.09047e-06
-5.61542e-07
6.27658e-05
-5.80621e-07
5.94233e-05
-2.48751e-06
2.08869e-06
-1.13884e-06
5.8358e-05
-2.4907e-06
1.61655e-06
-1.10521e-06
6.17776e-05
1.10008e-06
-1.09799e-06
6.43922e-05
5.56564e-07
-1.10008e-06
6.61592e-05
3.44477e-13
-1.10278e-06
6.705e-05
-5.56563e-07
-1.10278e-06
6.705e-05
-1.10008e-06
-1.10008e-06
6.61592e-05
-1.61655e-06
-1.09799e-06
6.43922e-05
-2.08869e-06
-1.1052e-06
6.17776e-05
-1.13884e-06
5.8358e-05
-2.49069e-06
2.08542e-06
-1.65196e-06
5.62432e-05
-2.49787e-06
1.61211e-06
-1.61567e-06
5.98164e-05
1.09799e-06
-1.61211e-06
6.25472e-05
5.56167e-07
-1.61655e-06
6.43922e-05
6.35272e-13
-1.62007e-06
6.53221e-05
-5.56165e-07
-1.62007e-06
6.53221e-05
-1.09799e-06
-1.61655e-06
6.43922e-05
-1.61211e-06
-1.61211e-06
6.25472e-05
-2.08541e-06
-1.61567e-06
5.98164e-05
-1.65195e-06
5.62432e-05
-2.49787e-06
2.08384e-06
-2.10211e-06
5.31101e-05
-2.50792e-06
1.61568e-06
-2.08384e-06
5.69123e-05
1.10521e-06
-2.08541e-06
5.98164e-05
5.61547e-07
-2.08869e-06
6.17776e-05
9.75513e-13
-2.09047e-06
6.27658e-05
-5.61545e-07
-2.09047e-06
6.27658e-05
-1.10521e-06
-2.08869e-06
6.17776e-05
-1.61567e-06
-2.08541e-06
5.98164e-05
-2.08383e-06
-2.08383e-06
5.69123e-05
-2.1021e-06
5.31101e-05
-2.50791e-06
2.10211e-06
4.90054e-05
-2.50554e-06
-2.50554e-06
1.65196e-06
5.31101e-05
-2.50791e-06
1.13884e-06
5.62432e-05
-2.49787e-06
5.80626e-07
5.8358e-05
-2.49069e-06
6.14608e-13
5.94233e-05
-2.48751e-06
-5.80624e-07
5.94233e-05
-2.48751e-06
-1.13884e-06
5.8358e-05
-2.49069e-06
-1.65195e-06
5.62432e-05
-2.49787e-06
-2.1021e-06
5.31101e-05
-2.50791e-06
4.90054e-05
-2.50554e-06
-2.50554e-06
2.40361e-06
2.40362e-06
4.9929e-05
-2.86541e-06
-2.86541e-06
1.88849e-06
2.38276e-06
5.41107e-05
-2.8682e-06
1.30183e-06
2.38496e-06
5.73024e-05
-2.8575e-06
6.63707e-07
2.38917e-06
5.94568e-05
-2.84983e-06
-4.14164e-12
2.3915e-06
6.0542e-05
-2.84649e-06
-6.63715e-07
2.39149e-06
6.0542e-05
-2.84649e-06
-1.30184e-06
2.38917e-06
5.94568e-05
-2.84983e-06
-1.88851e-06
2.38496e-06
5.73024e-05
-2.8575e-06
-2.40362e-06
2.38276e-06
5.41107e-05
-2.8682e-06
2.40362e-06
4.9929e-05
-2.86541e-06
-2.86541e-06
2.38275e-06
1.8885e-06
5.41107e-05
-2.86819e-06
1.84704e-06
1.84705e-06
5.79837e-05
1.26329e-06
1.84319e-06
6.09419e-05
6.41813e-07
1.84862e-06
6.29396e-05
-3.72127e-12
1.85288e-06
6.39462e-05
-6.4182e-07
1.85288e-06
6.39462e-05
-1.2633e-06
1.84862e-06
6.29396e-05
-1.84705e-06
1.8432e-06
6.09419e-05
-2.38276e-06
1.84705e-06
5.79837e-05
1.88851e-06
5.41107e-05
-2.8682e-06
2.38496e-06
1.30183e-06
5.73024e-05
-2.8575e-06
1.84319e-06
1.2633e-06
6.09419e-05
1.25512e-06
1.25512e-06
6.37234e-05
6.35671e-07
1.25772e-06
6.56026e-05
-2.81525e-12
1.26097e-06
6.65497e-05
-6.35677e-07
1.26097e-06
6.65497e-05
-1.25512e-06
1.25772e-06
6.56026e-05
-1.8432e-06
1.25512e-06
6.37234e-05
-2.38496e-06
1.2633e-06
6.09419e-05
1.30184e-06
5.73024e-05
-2.8575e-06
2.38917e-06
6.63711e-07
5.94568e-05
-2.84983e-06
1.84861e-06
6.41817e-07
6.29396e-05
1.25771e-06
6.35675e-07
6.56026e-05
6.36219e-07
6.36222e-07
6.74022e-05
-2.21797e-12
6.37751e-07
6.83094e-05
-6.36223e-07
6.37752e-07
6.83094e-05
-1.25772e-06
6.36223e-07
6.74022e-05
-1.84862e-06
6.35677e-07
6.56026e-05
-2.38917e-06
6.41821e-07
6.29396e-05
6.63715e-07
5.94568e-05
-2.84983e-06
2.39149e-06
4.57052e-13
6.0542e-05
-2.84649e-06
1.85287e-06
2.36596e-13
6.39462e-05
1.26097e-06
9.71163e-13
6.65497e-05
6.37748e-07
1.34677e-12
6.83094e-05
-1.91983e-12
1.55352e-12
6.91966e-05
-6.37752e-07
1.78005e-12
6.91966e-05
-1.26097e-06
2.25278e-12
6.83094e-05
-1.85288e-06
3.00306e-12
6.65497e-05
-2.39149e-06
3.99255e-12
6.39462e-05
4.34273e-12
6.0542e-05
-2.84649e-06
2.39149e-06
-6.63711e-07
6.0542e-05
-2.84649e-06
1.85287e-06
-6.41816e-07
6.39462e-05
1.26097e-06
-6.35673e-07
6.65497e-05
6.37748e-07
-6.3622e-07
6.83094e-05
-1.75954e-12
-6.37748e-07
6.91966e-05
-6.37751e-07
-6.37748e-07
6.91966e-05
-1.26097e-06
-6.36218e-07
6.83094e-05
-1.85288e-06
-6.35671e-07
6.65497e-05
-2.39149e-06
-6.41812e-07
6.39462e-05
-6.63706e-07
6.0542e-05
-2.84649e-06
2.38917e-06
-1.30183e-06
5.94568e-05
-2.84983e-06
1.84861e-06
-1.2633e-06
6.29396e-05
1.25771e-06
-1.25512e-06
6.56026e-05
6.3622e-07
-1.25771e-06
6.74022e-05
-1.4418e-12
-1.26097e-06
6.83094e-05
-6.36222e-07
-1.26097e-06
6.83094e-05
-1.25772e-06
-1.25771e-06
6.74022e-05
-1.84861e-06
-1.25512e-06
6.56026e-05
-2.38917e-06
-1.26329e-06
6.29396e-05
-1.30182e-06
5.94568e-05
-2.84983e-06
2.38496e-06
-1.8885e-06
5.73024e-05
-2.8575e-06
1.84319e-06
-1.84705e-06
6.09419e-05
1.25512e-06
-1.84319e-06
6.37234e-05
6.35673e-07
-1.84861e-06
6.56026e-05
-1.05842e-12
-1.85287e-06
6.65497e-05
-6.35675e-07
-1.85287e-06
6.65497e-05
-1.25512e-06
-1.84861e-06
6.56026e-05
-1.84319e-06
-1.84319e-06
6.37234e-05
-2.38496e-06
-1.84704e-06
6.09419e-05
-1.88849e-06
5.73024e-05
-2.8575e-06
2.38276e-06
-2.40362e-06
5.41107e-05
-2.86819e-06
1.84705e-06
-2.38276e-06
5.79837e-05
1.2633e-06
-2.38496e-06
6.09419e-05
6.41816e-07
-2.38917e-06
6.29396e-05
-4.29826e-13
-2.39149e-06
6.39462e-05
-6.41817e-07
-2.39149e-06
6.39462e-05
-1.2633e-06
-2.38917e-06
6.29396e-05
-1.84705e-06
-2.38495e-06
6.09419e-05
-2.38275e-06
-2.38275e-06
5.79837e-05
-2.40361e-06
5.41107e-05
-2.86819e-06
2.40362e-06
4.9929e-05
-2.86541e-06
-2.86541e-06
1.8885e-06
5.41107e-05
-2.86819e-06
1.30183e-06
5.73024e-05
-2.8575e-06
6.6371e-07
5.94568e-05
-2.84983e-06
-7.43445e-13
6.0542e-05
-2.84648e-06
-6.63711e-07
6.0542e-05
-2.84648e-06
-1.30183e-06
5.94568e-05
-2.84983e-06
-1.8885e-06
5.73024e-05
-2.8575e-06
-2.40362e-06
5.41107e-05
-2.86819e-06
4.9929e-05
-2.86541e-06
-2.86541e-06
2.61257e-06
2.61257e-06
5.09333e-05
-3.11471e-06
-3.11471e-06
2.05243e-06
2.58951e-06
5.51986e-05
-3.11731e-06
1.41482e-06
2.59248e-06
5.84541e-05
-3.10655e-06
7.21327e-07
2.5977e-06
6.06515e-05
-3.09888e-06
-6.28997e-12
2.60062e-06
6.17583e-05
-3.09561e-06
-7.21339e-07
2.60062e-06
6.17583e-05
-3.09561e-06
-1.41484e-06
2.5977e-06
6.06515e-05
-3.09888e-06
-2.05245e-06
2.59248e-06
5.84541e-05
-3.10655e-06
-2.61258e-06
2.58952e-06
5.51986e-05
-3.11732e-06
2.61258e-06
5.09333e-05
-3.11472e-06
-3.11472e-06
2.58951e-06
2.05243e-06
5.51986e-05
-3.11731e-06
2.00704e-06
2.00705e-06
5.91486e-05
1.37261e-06
2.00321e-06
6.21656e-05
6.97325e-07
2.00963e-06
6.4203e-05
-6.03604e-12
2.01462e-06
6.52296e-05
-6.97336e-07
2.01462e-06
6.52296e-05
-1.37263e-06
2.00963e-06
6.4203e-05
-2.00705e-06
2.00322e-06
6.21656e-05
-2.58952e-06
2.00705e-06
5.91486e-05
2.05245e-06
5.51986e-05
-3.11731e-06
2.59247e-06
1.41483e-06
5.84541e-05
-3.10654e-06
2.00321e-06
1.37262e-06
6.21656e-05
1.36388e-06
1.36389e-06
6.5002e-05
6.9069e-07
1.36704e-06
6.69184e-05
-4.78322e-12
1.37083e-06
6.78841e-05
-6.907e-07
1.37083e-06
6.78841e-05
-1.36389e-06
1.36705e-06
6.69183e-05
-2.00322e-06
1.36389e-06
6.5002e-05
-2.59247e-06
1.37262e-06
6.21656e-05
1.41483e-06
5.84541e-05
-3.10655e-06
2.59769e-06
7.21332e-07
6.06515e-05
-3.09887e-06
2.00963e-06
6.9733e-07
6.4203e-05
1.36704e-06
6.90696e-07
6.69184e-05
6.91441e-07
6.91447e-07
6.87534e-05
-3.98913e-12
6.9323e-07
6.96785e-05
-6.91449e-07
6.93231e-07
6.96785e-05
-1.36705e-06
6.91448e-07
6.87534e-05
-2.00963e-06
6.90699e-07
6.69183e-05
-2.59769e-06
6.97335e-07
6.4203e-05
7.21338e-07
6.06515e-05
-3.09888e-06
2.60062e-06
8.54204e-14
6.17583e-05
-3.09561e-06
2.01461e-06
-2.63598e-13
6.52296e-05
1.37082e-06
9.17732e-13
6.78841e-05
6.93225e-07
1.46784e-12
6.96785e-05
-3.69256e-12
1.69867e-12
7.0583e-05
-6.93232e-07
1.93005e-12
7.0583e-05
-1.37083e-06
2.46928e-12
6.96785e-05
-2.01462e-06
3.35515e-12
6.78841e-05
-2.60062e-06
4.51587e-12
6.52295e-05
4.65056e-12
6.17583e-05
-3.09561e-06
2.60061e-06
-7.21333e-07
6.17583e-05
-3.09561e-06
2.01461e-06
-6.9733e-07
6.52296e-05
1.37082e-06
-6.90694e-07
6.78841e-05
6.93225e-07
-6.91444e-07
6.96785e-05
-3.60701e-12
-6.93227e-07
7.0583e-05
-6.93232e-07
-6.93227e-07
7.0583e-05
-1.37083e-06
-6.91442e-07
6.96785e-05
-2.01462e-06
-6.90691e-07
6.78841e-05
-2.60062e-06
-6.97325e-07
6.52295e-05
-7.21327e-07
6.17583e-05
-3.09561e-06
2.59769e-06
-1.41483e-06
6.06515e-05
-3.09887e-06
2.00963e-06
-1.37262e-06
6.4203e-05
1.36704e-06
-1.36388e-06
6.69183e-05
6.91442e-07
-1.36704e-06
6.87534e-05
-3.33891e-12
-1.37082e-06
6.96785e-05
-6.91448e-07
-1.37082e-06
6.96785e-05
-1.36704e-06
-1.36704e-06
6.87534e-05
-2.00963e-06
-1.36388e-06
6.69184e-05
-2.59769e-06
-1.37261e-06
6.4203e-05
-1.41482e-06
6.06515e-05
-3.09888e-06
2.59247e-06
-2.05244e-06
5.84541e-05
-3.10654e-06
2.00321e-06
-2.00705e-06
6.21656e-05
1.36388e-06
-2.00321e-06
6.5002e-05
6.90692e-07
-2.00963e-06
6.69183e-05
-2.91993e-12
-2.01461e-06
6.78841e-05
-6.90697e-07
-2.01461e-06
6.78841e-05
-1.36389e-06
-2.00963e-06
6.69184e-05
-2.00321e-06
-2.00321e-06
6.5002e-05
-2.59247e-06
-2.00704e-06
6.21656e-05
-2.05243e-06
5.84541e-05
-3.10654e-06
2.58951e-06
-2.61257e-06
5.51986e-05
-3.11731e-06
2.00705e-06
-2.58951e-06
5.91486e-05
1.37262e-06
-2.59247e-06
6.21656e-05
6.97328e-07
-2.59769e-06
6.4203e-05
-2.01123e-12
-2.60061e-06
6.52295e-05
-6.97331e-07
-2.60061e-06
6.52295e-05
-1.37262e-06
-2.59769e-06
6.4203e-05
-2.00705e-06
-2.59247e-06
6.21656e-05
-2.58951e-06
-2.5895e-06
5.91486e-05
-2.61257e-06
5.51986e-05
-3.11731e-06
2.61257e-06
5.09333e-05
-3.11471e-06
-3.11471e-06
2.05244e-06
5.51986e-05
-3.11731e-06
1.41483e-06
5.84541e-05
-3.10654e-06
7.21331e-07
6.06515e-05
-3.09887e-06
-2.41438e-12
6.17583e-05
-3.09561e-06
-7.21334e-07
6.17583e-05
-3.09561e-06
-1.41483e-06
6.06515e-05
-3.09887e-06
-2.05243e-06
5.84541e-05
-3.10654e-06
-2.61257e-06
5.51986e-05
-3.11731e-06
5.09333e-05
-3.11471e-06
-3.11471e-06
2.73729e-06
2.73729e-06
5.19856e-05
-3.26344e-06
-3.26344e-06
2.15025e-06
2.71272e-06
5.63386e-05
-3.26565e-06
1.48227e-06
2.71645e-06
5.96609e-05
-3.25524e-06
7.5574e-07
2.72261e-06
6.19033e-05
-3.2479e-06
-7.42046e-12
2.72609e-06
6.30329e-05
-3.24486e-06
-7.55755e-07
2.72609e-06
6.30329e-05
-3.24486e-06
-1.48229e-06
2.7226e-06
6.19033e-05
-3.2479e-06
-2.15027e-06
2.71645e-06
5.96609e-05
-3.25524e-06
-2.7373e-06
2.71273e-06
5.63386e-05
-3.26565e-06
2.7373e-06
5.19856e-05
-3.26344e-06
-3.26344e-06
2.71271e-06
2.15025e-06
5.63386e-05
-3.26564e-06
2.10236e-06
2.10237e-06
6.03693e-05
1.43775e-06
2.09877e-06
6.34479e-05
7.30401e-07
2.10607e-06
6.55269e-05
-7.61381e-12
2.11167e-06
6.65744e-05
-7.30415e-07
2.11168e-06
6.65744e-05
-1.43776e-06
2.10607e-06
6.55268e-05
-2.10238e-06
2.09877e-06
6.34479e-05
-2.71273e-06
2.10238e-06
6.03693e-05
2.15027e-06
5.63386e-05
-3.26565e-06
2.71644e-06
1.48228e-06
5.96609e-05
-3.25523e-06
2.09876e-06
1.43775e-06
6.34479e-05
1.42879e-06
1.4288e-06
6.6342e-05
7.23518e-07
1.43249e-06
6.82972e-05
-6.19252e-12
1.43672e-06
6.92826e-05
-7.2353e-07
1.43672e-06
6.92826e-05
-1.42881e-06
1.43249e-06
6.82972e-05
-2.09877e-06
1.4288e-06
6.6342e-05
-2.71645e-06
1.43776e-06
6.34479e-05
1.48229e-06
5.96609e-05
-3.25524e-06
2.7226e-06
7.55747e-07
6.19033e-05
-3.2479e-06
2.10606e-06
7.30408e-07
6.55269e-05
1.43248e-06
7.23524e-07
6.82972e-05
7.24482e-07
7.24488e-07
7.01694e-05
-5.63631e-12
7.26493e-07
7.11132e-05
-7.24493e-07
7.26493e-07
7.11132e-05
-1.43249e-06
7.24489e-07
7.01694e-05
-2.10608e-06
7.23525e-07
6.82972e-05
-2.7226e-06
7.30412e-07
6.55268e-05
7.55752e-07
6.19033e-05
-3.2479e-06
2.72609e-06
-4.61998e-13
6.30329e-05
-3.24486e-06
2.11167e-06
-1.16338e-12
6.65744e-05
1.43672e-06
4.59515e-13
6.92826e-05
7.26487e-07
1.01367e-12
7.11132e-05
-5.7254e-12
1.0138e-12
7.2036e-05
-7.26498e-07
9.65043e-13
7.2036e-05
-1.43673e-06
1.30674e-12
7.11132e-05
-2.11168e-06
2.16864e-12
6.92826e-05
-2.72609e-06
3.49954e-12
6.65744e-05
3.44038e-12
6.30329e-05
-3.24487e-06
2.72609e-06
-7.55749e-07
6.30329e-05
-3.24486e-06
2.11167e-06
-7.30409e-07
6.65744e-05
1.43672e-06
-7.23523e-07
6.92826e-05
7.26486e-07
-7.24486e-07
7.11132e-05
-6.00423e-12
-7.26491e-07
7.2036e-05
-7.26498e-07
-7.26491e-07
7.2036e-05
-1.43673e-06
-7.24485e-07
7.11132e-05
-2.11168e-06
-7.23521e-07
6.92826e-05
-2.72609e-06
-7.30404e-07
6.65744e-05
-7.55743e-07
6.30329e-05
-3.24487e-06
2.7226e-06
-1.48228e-06
6.19033e-05
-3.2479e-06
2.10607e-06
-1.43776e-06
6.55268e-05
1.43248e-06
-1.4288e-06
6.82972e-05
7.24482e-07
-1.43249e-06
7.01694e-05
-5.90063e-12
-1.43672e-06
7.11132e-05
-7.24493e-07
-1.43672e-06
7.11132e-05
-1.43249e-06
-1.43249e-06
7.01694e-05
-2.10607e-06
-1.4288e-06
6.82972e-05
-2.72261e-06
-1.43775e-06
6.55268e-05
-1.48227e-06
6.19033e-05
-3.2479e-06
2.71644e-06
-2.15026e-06
5.96609e-05
-3.25523e-06
2.09876e-06
-2.10237e-06
6.34479e-05
1.4288e-06
-2.09877e-06
6.6342e-05
7.23518e-07
-2.10607e-06
6.82972e-05
-5.42297e-12
-2.11167e-06
6.92826e-05
-7.23528e-07
-2.11167e-06
6.92826e-05
-1.42881e-06
-2.10607e-06
6.82972e-05
-2.09877e-06
-2.09876e-06
6.6342e-05
-2.71644e-06
-2.10237e-06
6.34479e-05
-2.15025e-06
5.96609e-05
-3.25524e-06
2.71272e-06
-2.7373e-06
5.63386e-05
-3.26564e-06
2.10237e-06
-2.71272e-06
6.03693e-05
1.43775e-06
-2.71644e-06
6.34479e-05
7.30404e-07
-2.7226e-06
6.55268e-05
-4.10551e-12
-2.72609e-06
6.65744e-05
-7.30412e-07
-2.72609e-06
6.65744e-05
-1.43776e-06
-2.7226e-06
6.55268e-05
-2.10237e-06
-2.71644e-06
6.34479e-05
-2.71272e-06
-2.71271e-06
6.03693e-05
-2.73729e-06
5.63386e-05
-3.26565e-06
2.7373e-06
5.19856e-05
-3.26344e-06
-3.26343e-06
2.15026e-06
5.63386e-05
-3.26564e-06
1.48228e-06
5.96609e-05
-3.25524e-06
7.55744e-07
6.19033e-05
-3.2479e-06
-4.54672e-12
6.30329e-05
-3.24486e-06
-7.55751e-07
6.30329e-05
-3.24486e-06
-1.48228e-06
6.19033e-05
-3.2479e-06
-2.15025e-06
5.96609e-05
-3.25523e-06
-2.7373e-06
5.63386e-05
-3.26564e-06
5.19856e-05
-3.26344e-06
-3.26344e-06
2.7886e-06
2.7886e-06
5.30576e-05
-3.32458e-06
-3.32458e-06
2.19044e-06
2.76325e-06
5.74999e-05
-3.32641e-06
1.51001e-06
2.76757e-06
6.08903e-05
-3.31653e-06
7.69905e-07
2.77443e-06
6.31787e-05
-3.30964e-06
-9.26284e-12
2.77833e-06
6.43314e-05
-3.30687e-06
-7.69924e-07
2.77833e-06
6.43314e-05
-3.30687e-06
-1.51003e-06
2.77442e-06
6.31787e-05
-3.30964e-06
-2.19047e-06
2.76757e-06
6.08903e-05
-3.31653e-06
-2.78861e-06
2.76326e-06
5.74999e-05
-3.32641e-06
2.78861e-06
5.30576e-05
-3.32459e-06
-3.32458e-06
2.76324e-06
2.19044e-06
5.74999e-05
-3.3264e-06
2.14142e-06
2.14143e-06
6.16129e-05
1.46443e-06
2.13811e-06
6.47543e-05
7.4395e-07
2.14604e-06
6.68757e-05
-9.8978e-12
2.15207e-06
6.79446e-05
-7.43969e-07
2.15208e-06
6.79446e-05
-1.46445e-06
2.14605e-06
6.68757e-05
-2.14144e-06
2.13812e-06
6.47543e-05
-2.76326e-06
2.14144e-06
6.16129e-05
2.19046e-06
5.74999e-05
-3.32641e-06
2.76757e-06
1.51001e-06
6.08903e-05
-3.31653e-06
2.13811e-06
1.46443e-06
6.47543e-05
1.45549e-06
1.45549e-06
6.77072e-05
7.37003e-07
1.45957e-06
6.97022e-05
-8.02158e-12
1.46412e-06
7.07076e-05
-7.37018e-07
1.46412e-06
7.07076e-05
-1.4555e-06
1.45958e-06
6.97022e-05
-2.13812e-06
1.4555e-06
6.77072e-05
-2.76757e-06
1.46444e-06
6.47543e-05
1.51003e-06
6.08903e-05
-3.31653e-06
2.77442e-06
7.69912e-07
6.31787e-05
-3.30964e-06
2.14604e-06
7.43957e-07
6.68757e-05
1.45957e-06
7.3701e-07
6.97022e-05
7.38138e-07
7.38146e-07
7.16123e-05
-7.32905e-12
7.40304e-07
7.25751e-05
-7.38153e-07
7.40304e-07
7.25751e-05
-1.45958e-06
7.38146e-07
7.16123e-05
-2.14605e-06