/*--------------------------------*- C++ -*----------------------------------*\
| =========                 |                                                 |
| \\      /  F ield         | OpenFOAM: The Open Source CFD Toolbox           |
|  \\    /   O peration     | Version:  2412                                  |
|   \\  /    A nd           | Website:  www.openfoam.com                      |
|    \\/     M anipulation  |                                                 |
\*---------------------------------------------------------------------------*/
FoamFile
{
    version     2.0;
    format      ascii;
    arch        "LSB;label=32;scalar=64";
    class       volVectorField;
    location    "0.497";
    object      U;
}
// * * * * * * * * * * * * * * * * * * * * * * * * * * * * * * * * * * * * * //

dimensions      [0 1 -1 0 0 0 0];

internalField   nonuniform List<vector> 
15000
(
(0.000415899 0.000415901 1.00038)
(0.000319216 0.000444523 1.00038)
(0.000229095 0.000466937 1.00038)
(0.000138271 0.000481551 1.00038)
(4.62257e-05 0.000488687 1.00038)
(-4.62256e-05 0.000488687 1.00038)
(-0.000138271 0.000481551 1.00038)
(-0.000229094 0.000466938 1.00038)
(-0.000319214 0.000444526 1.00038)
(-0.000415897 0.000415905 1.00038)
(0.000444522 0.000319217 1.00038)
(0.000336294 0.000336295 1.00038)
(0.000239739 0.000354617 1.00038)
(0.00014399 0.000367506 1.00038)
(4.80308e-05 0.000373978 1.00038)
(-4.80293e-05 0.000373978 1.00038)
(-0.000143988 0.000367507 1.00038)
(-0.000239737 0.000354618 1.00038)
(-0.000336291 0.000336297 1.00038)
(-0.000444518 0.000319221 1.00038)
(0.000466935 0.000229097 1.00038)
(0.000354615 0.000239741 1.00038)
(0.000252151 0.000252153 1.00038)
(0.00015098 0.000261596 1.00038)
(5.02696e-05 0.000266535 1.00038)
(-5.02673e-05 0.000266535 1.00038)
(-0.000150977 0.000261597 1.00038)
(-0.000252149 0.000252154 1.00038)
(-0.000354612 0.000239742 1.00038)
(-0.000466932 0.000229099 1.00038)
(0.000481549 0.000138273 1.00038)
(0.000367505 0.000143992 1.00038)
(0.000261595 0.000150981 1.00038)
(0.000156561 0.000156563 1.00038)
(5.20982e-05 0.000159575 1.00038)
(-5.20952e-05 0.000159575 1.00038)
(-0.000156558 0.000156563 1.00038)
(-0.000261591 0.000150982 1.00038)
(-0.000367501 0.000143993 1.00038)
(-0.000481546 0.000138275 1.00038)
(0.000488686 4.62279e-05 1.00038)
(0.000373977 4.80326e-05 1.00038)
(0.000266533 5.02714e-05 1.00038)
(0.000159573 5.20999e-05 1.00038)
(5.31005e-05 5.31023e-05 1.00038)
(-5.30971e-05 5.31024e-05 1.00038)
(-0.000159569 5.21004e-05 1.00038)
(-0.000266529 5.02722e-05 1.00038)
(-0.000373973 4.80338e-05 1.00038)
(-0.000488682 4.62291e-05 1.00038)
(0.000488686 -4.62235e-05 1.00038)
(0.000373977 -4.80275e-05 1.00038)
(0.000266534 -5.02656e-05 1.00038)
(0.000159573 -5.20935e-05 1.00038)
(5.31007e-05 -5.30953e-05 1.00038)
(-5.3097e-05 -5.30951e-05 1.00038)
(-0.000159569 -5.20929e-05 1.00038)
(-0.000266529 -5.02646e-05 1.00038)
(-0.000373973 -4.80262e-05 1.00038)
(-0.000488682 -4.62222e-05 1.00038)
(0.00048155 -0.000138269 1.00038)
(0.000367506 -0.000143987 1.00038)
(0.000261596 -0.000150976 1.00038)
(0.000156562 -0.000156557 1.00038)
(5.20988e-05 -0.000159568 1.00038)
(-5.20948e-05 -0.000159568 1.00038)
(-0.000156558 -0.000156556 1.00038)
(-0.000261591 -0.000150974 1.00038)
(-0.000367501 -0.000143985 1.00038)
(-0.000481546 -0.000138267 1.00038)
(0.000466936 -0.000229093 1.00038)
(0.000354617 -0.000239736 1.00038)
(0.000252153 -0.000252147 1.00038)
(0.000150981 -0.00026159 1.00038)
(5.02708e-05 -0.000266528 1.00038)
(-5.02664e-05 -0.000266528 1.00038)
(-0.000150976 -0.00026159 1.00038)
(-0.000252148 -0.000252146 1.00038)
(-0.000354612 -0.000239734 1.00038)
(-0.000466932 -0.000229091 1.00038)
(0.000444524 -0.000319214 1.00038)
(0.000336296 -0.000336291 1.00038)
(0.000239741 -0.000354612 1.00038)
(0.000143992 -0.000367501 1.00038)
(4.80325e-05 -0.000373972 1.00038)
(-4.80278e-05 -0.000373972 1.00038)
(-0.000143987 -0.0003675 1.00038)
(-0.000239736 -0.00035461 1.00038)
(-0.000336291 -0.000336289 1.00038)
(-0.000444519 -0.000319212 1.00038)
(0.000415902 -0.000415897 1.00038)
(0.000319219 -0.000444519 1.00038)
(0.000229098 -0.000466932 1.00038)
(0.000138273 -0.000481545 1.00038)
(4.62281e-05 -0.000488681 1.00038)
(-4.62234e-05 -0.000488681 1.00038)
(-0.000138268 -0.000481545 1.00038)
(-0.000229092 -0.000466931 1.00038)
(-0.000319213 -0.000444517 1.00038)
(-0.000415896 -0.000415895 1.00038)
(0.00112964 0.00112965 1.00591)
(0.000877638 0.00121079 1.00591)
(0.000629185 0.00127386 1.00592)
(0.000379292 0.00131581 1.00592)
(0.000126771 0.00133658 1.00592)
(-0.000126766 0.00133658 1.00592)
(-0.000379287 0.00131581 1.00592)
(-0.000629181 0.00127386 1.00592)
(-0.000877635 0.00121079 1.00591)
(-0.00112964 0.00112965 1.00591)
(0.00121079 0.000877639 1.00591)
(0.000924774 0.000924776 1.00593)
(0.000658901 0.000975119 1.00594)
(0.000395249 0.00101133 1.00595)
(0.000131796 0.00102977 1.00595)
(-0.00013179 0.00102977 1.00595)
(-0.000395243 0.00101133 1.00595)
(-0.000658896 0.000975118 1.00594)
(-0.00092477 0.000924775 1.00593)
(-0.00121078 0.00087764 1.00591)
(0.00127386 0.000629187 1.00592)
(0.000975118 0.000658902 1.00594)
(0.000692795 0.000692796 1.00595)
(0.000414306 0.000719164 1.00596)
(0.00013789 0.000733142 1.00596)
(-0.000137884 0.000733142 1.00596)
(-0.0004143 0.000719164 1.00596)
(-0.000692789 0.000692795 1.00595)
(-0.000975112 0.000658902 1.00594)
(-0.00127385 0.000629188 1.00592)
(0.00131581 0.000379293 1.00592)
(0.00101133 0.00039525 1.00595)
(0.000719163 0.000414307 1.00596)
(0.000429887 0.000429888 1.00597)
(0.000142994 0.00043841 1.00597)
(-0.000142987 0.00043841 1.00597)
(-0.000429881 0.000429887 1.00597)
(-0.000719157 0.000414307 1.00596)
(-0.00101132 0.00039525 1.00595)
(-0.0013158 0.000379294 1.00592)
(0.00133658 0.000126772 1.00592)
(0.00102977 0.000131797 1.00595)
(0.000733142 0.000137891 1.00596)
(0.000438409 0.000142994 1.00597)
(0.000145829 0.00014583 1.00598)
(-0.000145823 0.00014583 1.00598)
(-0.000438403 0.000142994 1.00597)
(-0.000733135 0.000137891 1.00596)
(-0.00102977 0.000131797 1.00595)
(-0.00133657 0.000126773 1.00592)
(0.00133658 -0.000126765 1.00592)
(0.00102977 -0.000131789 1.00595)
(0.000733142 -0.000137884 1.00596)
(0.00043841 -0.000142986 1.00597)
(0.000145829 -0.000145822 1.00598)
(-0.000145823 -0.000145822 1.00598)
(-0.000438403 -0.000142986 1.00597)
(-0.000733136 -0.000137883 1.00596)
(-0.00102977 -0.000131789 1.00595)
(-0.00133657 -0.000126764 1.00592)
(0.00131581 -0.000379287 1.00592)
(0.00101133 -0.000395243 1.00595)
(0.000719164 -0.000414299 1.00596)
(0.000429888 -0.00042988 1.00597)
(0.000142994 -0.000438402 1.00597)
(-0.000142987 -0.000438401 1.00597)
(-0.000429881 -0.000429879 1.00597)
(-0.000719157 -0.000414298 1.00596)
(-0.00101132 -0.000395241 1.00595)
(-0.0013158 -0.000379285 1.00592)
(0.00127386 -0.000629181 1.00592)
(0.000975119 -0.000658895 1.00594)
(0.000692796 -0.000692788 1.00595)
(0.000414307 -0.000719156 1.00596)
(0.000137891 -0.000733134 1.00596)
(-0.000137884 -0.000733134 1.00596)
(-0.0004143 -0.000719155 1.00596)
(-0.000692789 -0.000692787 1.00595)
(-0.000975113 -0.000658894 1.00594)
(-0.00127385 -0.000629178 1.00592)
(0.00121079 -0.000877634 1.00591)
(0.000924777 -0.000924769 1.00593)
(0.000658903 -0.000975111 1.00594)
(0.00039525 -0.00101132 1.00595)
(0.000131797 -0.00102976 1.00595)
(-0.00013179 -0.00102976 1.00595)
(-0.000395243 -0.00101132 1.00595)
(-0.000658896 -0.00097511 1.00594)
(-0.000924769 -0.000924767 1.00593)
(-0.00121078 -0.000877631 1.00591)
(0.00112965 -0.00112964 1.00591)
(0.000877642 -0.00121078 1.00591)
(0.000629188 -0.00127385 1.00592)
(0.000379293 -0.0013158 1.00592)
(0.000126772 -0.00133657 1.00592)
(-0.000126765 -0.00133657 1.00592)
(-0.000379287 -0.0013158 1.00592)
(-0.000629181 -0.00127385 1.00592)
(-0.000877634 -0.00121078 1.00591)
(-0.00112964 -0.00112964 1.00591)
(0.00178156 0.00178156 1.0176)
(0.00138327 0.00191232 1.01761)
(0.000990168 0.00201258 1.01762)
(0.000596535 0.00207914 1.01763)
(0.000199332 0.0021121 1.01763)
(-0.000199334 0.0021121 1.01763)
(-0.000596538 0.00207914 1.01763)
(-0.000990171 0.00201258 1.01762)
(-0.00138327 0.00191232 1.01761)
(-0.00178156 0.00178156 1.0176)
(0.00191232 0.00138327 1.01761)
(0.00146129 0.00146129 1.01764)
(0.00103946 0.00154123 1.01765)
(0.000623098 0.00159837 1.01767)
(0.000207718 0.00162743 1.01767)
(-0.000207719 0.00162743 1.01767)
(-0.000623098 0.00159837 1.01767)
(-0.00103946 0.00154123 1.01765)
(-0.00146129 0.00146129 1.01764)
(-0.00191232 0.00138328 1.01761)
(0.00201258 0.00099017 1.01762)
(0.00154123 0.00103946 1.01765)
(0.00109319 0.0010932 1.01768)
(0.000653352 0.00113465 1.01769)
(0.000217409 0.00115657 1.0177)
(-0.000217407 0.00115657 1.0177)
(-0.00065335 0.00113466 1.01769)
(-0.00109319 0.0010932 1.01768)
(-0.00154123 0.00103947 1.01765)
(-0.00201257 0.000990175 1.01762)
(0.00207914 0.000596538 1.01763)
(0.00159837 0.0006231 1.01767)
(0.00113465 0.000653353 1.01769)
(0.000677854 0.000677855 1.01771)
(0.000225439 0.000691204 1.01772)
(-0.000225436 0.000691204 1.01772)
(-0.00067785 0.000677856 1.01771)
(-0.00113465 0.000653356 1.01769)
(-0.00159836 0.000623103 1.01767)
(-0.00207914 0.000596542 1.01763)
(0.0021121 0.000199334 1.01763)
(0.00162743 0.00020772 1.01767)
(0.00115657 0.00021741 1.0177)
(0.000691203 0.00022544 1.01772)
(0.000229881 0.000229882 1.01773)
(-0.000229877 0.000229883 1.01773)
(-0.000691198 0.000225441 1.01772)
(-0.00115657 0.000217412 1.0177)
(-0.00162742 0.000207723 1.01767)
(-0.00211209 0.000199337 1.01763)
(0.0021121 -0.000199331 1.01763)
(0.00162743 -0.000207717 1.01767)
(0.00115657 -0.000217406 1.0177)
(0.000691203 -0.000225435 1.01772)
(0.000229882 -0.000229876 1.01773)
(-0.000229877 -0.000229876 1.01773)
(-0.000691198 -0.000225434 1.01772)
(-0.00115657 -0.000217404 1.0177)
(-0.00162742 -0.000207714 1.01767)
(-0.00211209 -0.000199328 1.01763)
(0.00207914 -0.000596535 1.01763)
(0.00159837 -0.000623096 1.01767)
(0.00113466 -0.000653349 1.01769)
(0.000677855 -0.000677849 1.01771)
(0.00022544 -0.000691198 1.01772)
(-0.000225435 -0.000691198 1.01772)
(-0.000677849 -0.000677848 1.01771)
(-0.00113465 -0.000653347 1.01769)
(-0.00159836 -0.000623093 1.01767)
(-0.00207914 -0.000596531 1.01763)
(0.00201258 -0.000990169 1.01762)
(0.00154123 -0.00103946 1.01765)
(0.0010932 -0.00109319 1.01768)
(0.000653354 -0.00113465 1.01769)
(0.000217411 -0.00115657 1.0177)
(-0.000217405 -0.00115657 1.0177)
(-0.000653348 -0.00113465 1.01769)
(-0.00109319 -0.00109319 1.01768)
(-0.00154122 -0.00103946 1.01765)
(-0.00201257 -0.000990164 1.01762)
(0.00191232 -0.00138327 1.01761)
(0.00146129 -0.00146129 1.01764)
(0.00103947 -0.00154123 1.01765)
(0.000623101 -0.00159836 1.01767)
(0.000207721 -0.00162742 1.01767)
(-0.000207716 -0.00162742 1.01767)
(-0.000623095 -0.00159836 1.01767)
(-0.00103946 -0.00154122 1.01765)
(-0.00146129 -0.00146128 1.01764)
(-0.00191231 -0.00138327 1.01761)
(0.00178156 -0.00178156 1.0176)
(0.00138327 -0.00191232 1.01761)
(0.000990173 -0.00201257 1.01762)
(0.000596539 -0.00207914 1.01763)
(0.000199335 -0.00211209 1.01763)
(-0.00019933 -0.00211209 1.01763)
(-0.000596533 -0.00207914 1.01763)
(-0.000990166 -0.00201257 1.01762)
(-0.00138327 -0.00191231 1.01761)
(-0.00178156 -0.00178155 1.0176)
(0.00222492 0.00222492 1.03332)
(0.001729 0.00238926 1.03333)
(0.00123714 0.00251507 1.03334)
(0.000745125 0.00259875 1.03334)
(0.000248959 0.00264023 1.03335)
(-0.000248961 0.00264023 1.03335)
(-0.000745127 0.00259875 1.03334)
(-0.00123714 0.00251507 1.03334)
(-0.001729 0.00238926 1.03333)
(-0.00222492 0.00222493 1.03332)
(0.00238926 0.001729 1.03333)
(0.00182664 0.00182665 1.03335)
(0.00129874 0.00192656 1.03337)
(0.000778248 0.00199811 1.03337)
(0.000259403 0.00203456 1.03338)
(-0.000259403 0.00203456 1.03338)
(-0.000778248 0.00199811 1.03337)
(-0.00129874 0.00192656 1.03337)
(-0.00182665 0.00182665 1.03335)
(-0.00238926 0.00172901 1.03333)
(0.00251507 0.00123714 1.03334)
(0.00192656 0.00129874 1.03337)
(0.00136576 0.00136576 1.03338)
(0.000815941 0.00141759 1.0334)
(0.000271468 0.00144503 1.0334)
(-0.000271466 0.00144503 1.0334)
(-0.00081594 0.00141759 1.0334)
(-0.00136576 0.00136576 1.03338)
(-0.00192655 0.00129874 1.03337)
(-0.00251507 0.00123714 1.03334)
(0.00259875 0.000745127 1.03334)
(0.00199811 0.00077825 1.03337)
(0.00141759 0.000815942 1.0334)
(0.000846555 0.000846556 1.03341)
(0.000281497 0.000863258 1.03342)
(-0.000281494 0.000863259 1.03342)
(-0.000846552 0.000846557 1.03341)
(-0.00141759 0.000815944 1.0334)
(-0.00199811 0.000778253 1.03337)
(-0.00259875 0.000745131 1.03334)
(0.00264023 0.000248961 1.03335)
(0.00203455 0.000259404 1.03338)
(0.00144503 0.000271469 1.0334)
(0.000863257 0.000281498 1.03342)
(0.000287053 0.000287054 1.03343)
(-0.00028705 0.000287054 1.03343)
(-0.000863254 0.000281499 1.03342)
(-0.00144503 0.00027147 1.0334)
(-0.00203455 0.000259407 1.03338)
(-0.00264023 0.000248963 1.03335)
(0.00264023 -0.000248959 1.03335)
(0.00203455 -0.000259402 1.03338)
(0.00144503 -0.000271465 1.0334)
(0.000863258 -0.000281494 1.03342)
(0.000287053 -0.00028705 1.03343)
(-0.00028705 -0.000287049 1.03343)
(-0.000863254 -0.000281493 1.03342)
(-0.00144503 -0.000271464 1.0334)
(-0.00203455 -0.0002594 1.03338)
(-0.00264023 -0.000248956 1.03335)
(0.00259875 -0.000745126 1.03334)
(0.00199811 -0.000778248 1.03337)
(0.00141759 -0.000815939 1.0334)
(0.000846556 -0.000846552 1.03341)
(0.000281498 -0.000863254 1.03342)
(-0.000281494 -0.000863254 1.03342)
(-0.000846552 -0.000846551 1.03341)
(-0.00141759 -0.000815938 1.0334)
(-0.00199811 -0.000778245 1.03337)
(-0.00259875 -0.000745122 1.03334)
(0.00251507 -0.00123714 1.03334)
(0.00192656 -0.00129874 1.03337)
(0.00136576 -0.00136576 1.03338)
(0.000815943 -0.00141759 1.0334)
(0.000271469 -0.00144503 1.0334)
(-0.000271465 -0.00144503 1.0334)
(-0.000815938 -0.00141759 1.0334)
(-0.00136575 -0.00136575 1.03338)
(-0.00192655 -0.00129874 1.03337)
(-0.00251507 -0.00123713 1.03334)
(0.00238926 -0.001729 1.03333)
(0.00182665 -0.00182665 1.03335)
(0.00129874 -0.00192655 1.03337)
(0.000778251 -0.00199811 1.03337)
(0.000259406 -0.00203455 1.03338)
(-0.000259401 -0.00203455 1.03338)
(-0.000778246 -0.00199811 1.03337)
(-0.00129874 -0.00192655 1.03337)
(-0.00182664 -0.00182664 1.03335)
(-0.00238926 -0.001729 1.03333)
(0.00222493 -0.00222492 1.03332)
(0.00172901 -0.00238926 1.03333)
(0.00123714 -0.00251507 1.03334)
(0.000745129 -0.00259875 1.03334)
(0.000248962 -0.00264023 1.03335)
(-0.000248957 -0.00264023 1.03335)
(-0.000745123 -0.00259875 1.03334)
(-0.00123713 -0.00251507 1.03334)
(-0.001729 -0.00238925 1.03333)
(-0.00222492 -0.00222492 1.03332)
(0.00254253 0.00254253 1.05193)
(0.00197679 0.00273108 1.05194)
(0.00141419 0.00287561 1.05194)
(0.000851648 0.0029719 1.05194)
(0.000284535 0.00301968 1.05194)
(-0.000284537 0.00301968 1.05194)
(-0.00085165 0.0029719 1.05194)
(-0.0014142 0.00287561 1.05194)
(-0.0019768 0.00273109 1.05194)
(-0.00254253 0.00254254 1.05193)
(0.00273108 0.0019768 1.05194)
(0.00208843 0.00208843 1.05195)
(0.00148456 0.00220302 1.05195)
(0.000889424 0.00228528 1.05195)
(0.000296434 0.00232722 1.05196)
(-0.000296435 0.00232722 1.05196)
(-0.000889425 0.00228528 1.05195)
(-0.00148456 0.00220302 1.05195)
(-0.00208843 0.00208843 1.05195)
(-0.00273108 0.0019768 1.05194)
(0.00287561 0.0014142 1.05194)
(0.00220301 0.00148456 1.05195)
(0.00156135 0.00156136 1.05196)
(0.000932581 0.00162091 1.05197)
(0.00031024 0.00165248 1.05197)
(-0.000310239 0.00165248 1.05197)
(-0.000932581 0.00162091 1.05197)
(-0.00156135 0.00156136 1.05196)
(-0.00220302 0.00148456 1.05195)
(-0.00287561 0.0014142 1.05194)
(0.0029719 0.000851649 1.05194)
(0.00228527 0.000889425 1.05195)
(0.00162091 0.000932583 1.05197)
(0.000967743 0.000967744 1.05197)
(0.000321756 0.000986958 1.05198)
(-0.000321755 0.000986958 1.05198)
(-0.000967742 0.000967745 1.05197)
(-0.00162091 0.000932584 1.05197)
(-0.00228527 0.000889428 1.05195)
(-0.0029719 0.000851653 1.05194)
(0.00301968 0.000284536 1.05194)
(0.00232722 0.000296435 1.05196)
(0.00165248 0.000310241 1.05197)
(0.000986957 0.000321757 1.05198)
(0.000328147 0.000328148 1.05198)
(-0.000328145 0.000328148 1.05198)
(-0.000986955 0.000321758 1.05198)
(-0.00165248 0.000310242 1.05197)
(-0.00232722 0.000296437 1.05196)
(-0.00301968 0.00028454 1.05194)
(0.00301968 -0.000284535 1.05194)
(0.00232722 -0.000296433 1.05196)
(0.00165248 -0.000310238 1.05197)
(0.000986957 -0.000321754 1.05198)
(0.000328147 -0.000328144 1.05198)
(-0.000328145 -0.000328144 1.05198)
(-0.000986955 -0.000321753 1.05198)
(-0.00165248 -0.000310237 1.05197)
(-0.00232722 -0.000296431 1.05196)
(-0.00301968 -0.000284532 1.05194)
(0.0029719 -0.000851649 1.05194)
(0.00228528 -0.000889423 1.05195)
(0.00162091 -0.00093258 1.05197)
(0.000967744 -0.000967741 1.05197)
(0.000321757 -0.000986954 1.05198)
(-0.000321755 -0.000986954 1.05198)
(-0.000967742 -0.00096774 1.05197)
(-0.00162091 -0.000932578 1.05197)
(-0.00228527 -0.000889421 1.05195)
(-0.0029719 -0.000851645 1.05194)
(0.00287561 -0.0014142 1.05194)
(0.00220302 -0.00148456 1.05195)
(0.00156136 -0.00156135 1.05196)
(0.000932582 -0.00162091 1.05197)
(0.000310241 -0.00165248 1.05197)
(-0.000310238 -0.00165248 1.05197)
(-0.00093258 -0.00162091 1.05197)
(-0.00156135 -0.00156135 1.05196)
(-0.00220302 -0.00148456 1.05195)
(-0.00287561 -0.00141419 1.05194)
(0.00273108 -0.0019768 1.05194)
(0.00208843 -0.00208843 1.05195)
(0.00148456 -0.00220302 1.05195)
(0.000889426 -0.00228527 1.05195)
(0.000296436 -0.00232722 1.05196)
(-0.000296433 -0.00232722 1.05196)
(-0.000889423 -0.00228527 1.05195)
(-0.00148456 -0.00220301 1.05195)
(-0.00208843 -0.00208842 1.05195)
(-0.00273108 -0.00197679 1.05194)
(0.00254253 -0.00254253 1.05193)
(0.0019768 -0.00273108 1.05194)
(0.0014142 -0.00287561 1.05194)
(0.000851651 -0.0029719 1.05194)
(0.000284538 -0.00301968 1.05194)
(-0.000284534 -0.00301968 1.05194)
(-0.000851647 -0.0029719 1.05194)
(-0.00141419 -0.00287561 1.05194)
(-0.0019768 -0.00273108 1.05194)
(-0.00254253 -0.00254253 1.05193)
(0.00276172 0.00276173 1.07262)
(0.00214853 0.00296703 1.07262)
(0.00153702 0.00312493 1.07261)
(0.00092553 0.00323038 1.07261)
(0.000309207 0.00328276 1.0726)
(-0.000309212 0.00328276 1.0726)
(-0.000925535 0.00323038 1.07261)
(-0.00153703 0.00312494 1.07261)
(-0.00214854 0.00296704 1.07262)
(-0.00276173 0.00276173 1.07262)
(0.00296703 0.00214854 1.07262)
(0.00226928 0.00226928 1.07261)
(0.00161307 0.00239428 1.0726)
(0.000966287 0.00248432 1.0726)
(0.000322029 0.00253032 1.0726)
(-0.000322032 0.00253032 1.0726)
(-0.00096629 0.00248432 1.0726)
(-0.00161308 0.00239428 1.0726)
(-0.00226929 0.00226929 1.07261)
(-0.00296703 0.00214854 1.07262)
(0.00312493 0.00153702 1.07261)
(0.00239427 0.00161308 1.0726)
(0.0016968 0.0016968 1.0726)
(0.0010133 0.00176199 1.0726)
(0.000337059 0.00179662 1.07259)
(-0.00033706 0.00179662 1.07259)
(-0.0010133 0.001762 1.0726)
(-0.0016968 0.0016968 1.0726)
(-0.00239428 0.00161308 1.0726)
(-0.00312493 0.00153703 1.07261)
(0.00323037 0.000925532 1.07261)
(0.00248432 0.000966289 1.0726)
(0.00176199 0.0010133 1.0726)
(0.00105178 0.00105178 1.07259)
(0.000349659 0.00107286 1.07259)
(-0.000349659 0.00107286 1.07259)
(-0.00105178 0.00105178 1.07259)
(-0.00176199 0.0010133 1.0726)
(-0.00248432 0.000966292 1.0726)
(-0.00323038 0.000925537 1.07261)
(0.00328276 0.000309209 1.0726)
(0.00253031 0.000322031 1.0726)
(0.00179662 0.000337061 1.07259)
(0.00107285 0.000349661 1.07259)
(0.000356668 0.000356669 1.07259)
(-0.000356667 0.000356669 1.07259)
(-0.00107285 0.000349661 1.07259)
(-0.00179662 0.000337062 1.07259)
(-0.00253032 0.000322034 1.0726)
(-0.00328276 0.000309213 1.0726)
(0.00328276 -0.00030921 1.0726)
(0.00253031 -0.00032203 1.0726)
(0.00179662 -0.000337058 1.07259)
(0.00107285 -0.000349657 1.07259)
(0.000356668 -0.000356666 1.07259)
(-0.000356667 -0.000356666 1.07259)
(-0.00107285 -0.000349657 1.07259)
(-0.00179662 -0.000337057 1.07259)
(-0.00253032 -0.000322027 1.0726)
(-0.00328276 -0.000309206 1.0726)
(0.00323037 -0.000925532 1.07261)
(0.00248432 -0.000966288 1.0726)
(0.00176199 -0.0010133 1.0726)
(0.00105178 -0.00105178 1.07259)
(0.000349659 -0.00107285 1.07259)
(-0.000349659 -0.00107285 1.07259)
(-0.00105178 -0.00105178 1.07259)
(-0.00176199 -0.0010133 1.0726)
(-0.00248432 -0.000966285 1.0726)
(-0.00323038 -0.000925527 1.07261)
(0.00312493 -0.00153703 1.07261)
(0.00239428 -0.00161308 1.0726)
(0.0016968 -0.0016968 1.0726)
(0.0010133 -0.00176199 1.0726)
(0.00033706 -0.00179662 1.07259)
(-0.000337059 -0.00179662 1.07259)
(-0.0010133 -0.00176199 1.0726)
(-0.0016968 -0.0016968 1.0726)
(-0.00239428 -0.00161307 1.0726)
(-0.00312493 -0.00153702 1.07261)
(0.00296703 -0.00214854 1.07262)
(0.00226929 -0.00226929 1.07261)
(0.00161308 -0.00239428 1.0726)
(0.000966289 -0.00248432 1.0726)
(0.000322032 -0.00253031 1.0726)
(-0.00032203 -0.00253031 1.0726)
(-0.000966288 -0.00248432 1.0726)
(-0.00161308 -0.00239427 1.0726)
(-0.00226928 -0.00226928 1.07261)
(-0.00296703 -0.00214853 1.07262)
(0.00276173 -0.00276173 1.07262)
(0.00214854 -0.00296703 1.07262)
(0.00153703 -0.00312493 1.07261)
(0.000925534 -0.00323037 1.07261)
(0.000309211 -0.00328276 1.0726)
(-0.000309208 -0.00328276 1.0726)
(-0.00092553 -0.00323037 1.07261)
(-0.00153702 -0.00312493 1.07261)
(-0.00214854 -0.00296703 1.07262)
(-0.00276173 -0.00276173 1.07262)
(0.00289163 0.00289163 1.09467)
(0.00225105 0.00310704 1.09465)
(0.00161041 0.00327331 1.09464)
(0.000969651 0.0033846 1.09463)
(0.00032394 0.00343996 1.09462)
(-0.000323944 0.00343996 1.09462)
(-0.000969657 0.0033846 1.09463)
(-0.00161042 0.00327331 1.09464)
(-0.00225106 0.00310704 1.09465)
(-0.00289164 0.00289164 1.09467)
(0.00310703 0.00225105 1.09465)
(0.00237693 0.00237693 1.09463)
(0.00168966 0.00250839 1.09461)
(0.00101206 0.00260342 1.0946)
(0.000337267 0.00265206 1.09459)
(-0.00033727 0.00265206 1.09459)
(-0.00101206 0.00260342 1.0946)
(-0.00168967 0.00250839 1.09461)
(-0.00237694 0.00237694 1.09463)
(-0.00310704 0.00225106 1.09465)
(0.00327331 0.00161041 1.09464)
(0.00250838 0.00168966 1.09461)
(0.00177768 0.00177769 1.09459)
(0.00106146 0.00184651 1.09458)
(0.000353051 0.00188314 1.09457)
(-0.000353052 0.00188314 1.09457)
(-0.00106146 0.00184651 1.09458)
(-0.00177769 0.00177769 1.09459)
(-0.00250839 0.00168967 1.09461)
(-0.00327331 0.00161042 1.09464)
(0.0033846 0.000969653 1.09463)
(0.00260342 0.00101206 1.0946)
(0.00184651 0.00106146 1.09458)
(0.00110207 0.00110208 1.09456)
(0.000366348 0.00112437 1.09456)
(-0.000366349 0.00112437 1.09456)
(-0.00110208 0.00110208 1.09456)
(-0.00184651 0.00106146 1.09458)
(-0.00260342 0.00101206 1.0946)
(-0.0033846 0.000969658 1.09463)
(0.00343996 0.000323941 1.09462)
(0.00265205 0.000337268 1.09459)
(0.00188314 0.000353052 1.09457)
(0.00112437 0.000366349 1.09456)
(0.000373762 0.000373763 1.09455)
(-0.000373763 0.000373763 1.09455)
(-0.00112437 0.000366349 1.09456)
(-0.00188314 0.000353053 1.09457)
(-0.00265206 0.000337271 1.09459)
(-0.00343996 0.000323945 1.09462)
(0.00343996 -0.000323944 1.09462)
(0.00265205 -0.000337269 1.09459)
(0.00188314 -0.000353051 1.09457)
(0.00112437 -0.000366347 1.09456)
(0.000373762 -0.000373762 1.09455)
(-0.000373764 -0.000373762 1.09455)
(-0.00112437 -0.000366347 1.09456)
(-0.00188314 -0.00035305 1.09457)
(-0.00265206 -0.000337266 1.09459)
(-0.00343996 -0.00032394 1.09462)
(0.0033846 -0.000969655 1.09463)
(0.00260342 -0.00101206 1.0946)
(0.00184651 -0.00106146 1.09458)
(0.00110207 -0.00110207 1.09456)
(0.000366347 -0.00112437 1.09456)
(-0.000366349 -0.00112437 1.09456)
(-0.00110208 -0.00110207 1.09456)
(-0.00184651 -0.00106146 1.09458)
(-0.00260342 -0.00101206 1.0946)
(-0.0033846 -0.00096965 1.09463)
(0.00327331 -0.00161042 1.09464)
(0.00250838 -0.00168966 1.09461)
(0.00177769 -0.00177769 1.09459)
(0.00106146 -0.00184651 1.09458)
(0.00035305 -0.00188314 1.09457)
(-0.000353052 -0.00188314 1.09457)
(-0.00106146 -0.00184651 1.09458)
(-0.00177769 -0.00177769 1.09459)
(-0.00250839 -0.00168966 1.09461)
(-0.00327331 -0.00161041 1.09464)
(0.00310704 -0.00225106 1.09465)
(0.00237693 -0.00237693 1.09463)
(0.00168966 -0.00250839 1.09461)
(0.00101206 -0.00260342 1.0946)
(0.000337268 -0.00265205 1.09459)
(-0.000337269 -0.00265205 1.09459)
(-0.00101206 -0.00260342 1.0946)
(-0.00168966 -0.00250838 1.09461)
(-0.00237693 -0.00237693 1.09463)
(-0.00310704 -0.00225105 1.09465)
(0.00289163 -0.00289163 1.09467)
(0.00225106 -0.00310704 1.09465)
(0.00161041 -0.00327331 1.09464)
(0.000969655 -0.0033846 1.09463)
(0.000323943 -0.00343996 1.09462)
(-0.000323942 -0.00343996 1.09462)
(-0.000969653 -0.0033846 1.09463)
(-0.00161041 -0.00327331 1.09464)
(-0.00225106 -0.00310703 1.09465)
(-0.00289164 -0.00289163 1.09467)
(0.00294421 0.00294421 1.1174)
(0.00229322 0.00316391 1.11738)
(0.00164064 0.00333399 1.11735)
(0.000987803 0.00344804 1.11734)
(0.000329998 0.00350484 1.11733)
(-0.000330005 0.00350484 1.11733)
(-0.000987811 0.00344804 1.11734)
(-0.00164065 0.00333399 1.11735)
(-0.00229323 0.00316391 1.11738)
(-0.00294422 0.00294422 1.1174)
(0.0031639 0.00229322 1.11738)
(0.00242096 0.00242096 1.11734)
(0.00172105 0.00255531 1.11731)
(0.00103078 0.00265271 1.11729)
(0.000343494 0.00270263 1.11728)
(-0.0003435 0.00270263 1.11728)
(-0.00103079 0.00265271 1.11729)
(-0.00172106 0.00255531 1.11731)
(-0.00242097 0.00242097 1.11734)
(-0.00316391 0.00229323 1.11738)
(0.00333398 0.00164064 1.11735)
(0.00255531 0.00172105 1.11731)
(0.00181099 0.001811 1.11727)
(0.00108124 0.00188155 1.11725)
(0.000359609 0.00191917 1.11724)
(-0.000359613 0.00191917 1.11724)
(-0.00108124 0.00188155 1.11725)
(-0.001811 0.001811 1.11727)
(-0.00255531 0.00172105 1.11731)
(-0.00333399 0.00164065 1.11735)
(0.00344804 0.000987803 1.11734)
(0.00265271 0.00103079 1.11729)
(0.00188155 0.00108124 1.11725)
(0.00112288 0.00112288 1.11723)
(0.000373239 0.00114578 1.11721)
(-0.000373241 0.00114578 1.11721)
(-0.00112288 0.00112288 1.11723)
(-0.00188156 0.00108124 1.11725)
(-0.00265272 0.00103079 1.11729)
(-0.00344805 0.00098781 1.11734)
(0.00350483 0.000329998 1.11733)
(0.00270263 0.000343495 1.11728)
(0.00191916 0.00035961 1.11724)
(0.00114577 0.000373239 1.11721)
(0.000380854 0.000380854 1.1172)
(-0.000380856 0.000380854 1.1172)
(-0.00114578 0.00037324 1.11721)
(-0.00191917 0.000359611 1.11724)
(-0.00270264 0.000343498 1.11728)
(-0.00350484 0.000330004 1.11733)
(0.00350483 -0.000330004 1.11733)
(0.00270263 -0.000343498 1.11728)
(0.00191916 -0.000359611 1.11724)
(0.00114577 -0.00037324 1.11721)
(0.000380853 -0.000380855 1.1172)
(-0.000380856 -0.000380855 1.1172)
(-0.00114578 -0.00037324 1.11721)
(-0.00191917 -0.00035961 1.11724)
(-0.00270264 -0.000343494 1.11728)
(-0.00350484 -0.000329999 1.11733)
(0.00344804 -0.000987809 1.11734)
(0.00265271 -0.00103079 1.11729)
(0.00188155 -0.00108124 1.11725)
(0.00112288 -0.00112288 1.11723)
(0.000373238 -0.00114578 1.11721)
(-0.000373242 -0.00114578 1.11721)
(-0.00112288 -0.00112288 1.11723)
(-0.00188156 -0.00108124 1.11725)
(-0.00265272 -0.00103078 1.11729)
(-0.00344805 -0.000987802 1.11734)
(0.00333398 -0.00164065 1.11735)
(0.00255531 -0.00172105 1.11731)
(0.00181099 -0.001811 1.11727)
(0.00108124 -0.00188155 1.11725)
(0.000359609 -0.00191916 1.11724)
(-0.000359613 -0.00191916 1.11724)
(-0.00108124 -0.00188155 1.11725)
(-0.001811 -0.001811 1.11727)
(-0.00255531 -0.00172105 1.11731)
(-0.00333399 -0.00164064 1.11735)
(0.0031639 -0.00229323 1.11738)
(0.00242096 -0.00242097 1.11734)
(0.00172105 -0.00255531 1.11731)
(0.00103079 -0.00265271 1.11729)
(0.000343495 -0.00270263 1.11728)
(-0.000343498 -0.00270263 1.11728)
(-0.00103079 -0.00265271 1.11729)
(-0.00172105 -0.00255531 1.11731)
(-0.00242097 -0.00242096 1.11734)
(-0.00316391 -0.00229322 1.11738)
(0.00294421 -0.00294422 1.1174)
(0.00229322 -0.00316391 1.11738)
(0.00164064 -0.00333399 1.11735)
(0.000987806 -0.00344804 1.11734)
(0.000330001 -0.00350483 1.11733)
(-0.000330001 -0.00350483 1.11733)
(-0.000987806 -0.00344804 1.11734)
(-0.00164064 -0.00333398 1.11735)
(-0.00229323 -0.0031639 1.11738)
(-0.00294422 -0.00294421 1.1174)
(0.00293697 0.00293698 1.14028)
(0.00228851 0.00315639 1.14025)
(0.00163731 0.00332663 1.14022)
(0.000985764 0.00344095 1.1402)
(0.000329314 0.00349793 1.14019)
(-0.00032932 0.00349793 1.14019)
(-0.000985772 0.00344096 1.1402)
(-0.00163733 0.00332663 1.14022)
(-0.00228852 0.00315639 1.14025)
(-0.00293698 0.00293698 1.14028)
(0.00315638 0.00228851 1.14025)
(0.00241559 0.0024156 1.1402)
(0.0017173 0.00254998 1.14016)
(0.00102848 0.00264762 1.14013)
(0.000342718 0.00269771 1.14012)
(-0.000342723 0.00269771 1.14012)
(-0.00102849 0.00264762 1.14013)
(-0.00171731 0.00254998 1.14016)
(-0.00241561 0.00241561 1.1402)
(-0.0031564 0.00228852 1.14025)
(0.00332662 0.00163731 1.14022)
(0.00254997 0.0017173 1.14016)
(0.00180726 0.00180726 1.14011)
(0.00107893 0.001878 1.14008)
(0.000358825 0.00191576 1.14006)
(-0.000358827 0.00191576 1.14006)
(-0.00107893 0.001878 1.14008)
(-0.00180726 0.00180726 1.14011)
(-0.00254998 0.0017173 1.14016)
(-0.00332663 0.00163733 1.14022)
(0.00344095 0.000985762 1.1402)
(0.00264761 0.00102848 1.14013)
(0.001878 0.00107893 1.14008)
(0.00112067 0.00112067 1.14004)
(0.000372488 0.00114366 1.14003)
(-0.000372489 0.00114366 1.14003)
(-0.00112067 0.00112067 1.14004)
(-0.001878 0.00107893 1.14008)
(-0.00264762 0.00102849 1.14013)
(-0.00344096 0.000985772 1.1402)
(0.00349792 0.000329312 1.14019)
(0.00269771 0.000342717 1.14012)
(0.00191575 0.000358824 1.14006)
(0.00114366 0.000372487 1.14003)
(0.000380133 0.000380132 1.14001)
(-0.000380134 0.000380133 1.14001)
(-0.00114366 0.000372488 1.14003)
(-0.00191576 0.000358826 1.14006)
(-0.00269772 0.000342722 1.14012)
(-0.00349793 0.000329319 1.14019)
(0.00349792 -0.000329321 1.14019)
(0.00269771 -0.000342723 1.14012)
(0.00191575 -0.000358828 1.14006)
(0.00114366 -0.00037249 1.14003)
(0.000380133 -0.000380135 1.14001)
(-0.000380135 -0.000380135 1.14001)
(-0.00114366 -0.000372489 1.14003)
(-0.00191576 -0.000358826 1.14006)
(-0.00269772 -0.000342718 1.14012)
(-0.00349793 -0.000329314 1.14019)
(0.00344095 -0.000985773 1.1402)
(0.00264761 -0.00102849 1.14013)
(0.001878 -0.00107893 1.14008)
(0.00112067 -0.00112067 1.14004)
(0.000372487 -0.00114366 1.14003)
(-0.00037249 -0.00114366 1.14003)