/*--------------------------------*- C++ -*----------------------------------*\
| =========                 |                                                 |
| \\      /  F ield         | OpenFOAM: The Open Source CFD Toolbox           |
|  \\    /   O peration     | Version:  2412                                  |
|   \\  /    A nd           | Website:  www.openfoam.com                      |
|    \\/     M anipulation  |                                                 |
\*---------------------------------------------------------------------------*/
FoamFile
{
    version     2.0;
    format      ascii;
    arch        "LSB;label=32;scalar=64";
    class       surfaceScalarField;
    location    "0.1";
    object      phi;
}
// * * * * * * * * * * * * * * * * * * * * * * * * * * * * * * * * * * * * * //

dimensions      [0 3 -1 0 0 0 0];

oriented        oriented;

internalField   nonuniform List<scalar> 
43700
(
1.42893e-08
1.42893e-08
4.76185e-07
-1.73726e-08
-1.73726e-08
1.02163e-08
1.18733e-08
5.15452e-07
-1.38683e-08
6.75256e-09
1.07523e-08
5.45387e-07
-1.3245e-08
3.36e-09
1.00339e-08
5.65583e-07
-1.25122e-08
3.3145e-14
9.68599e-09
5.75753e-07
-1.21503e-08
-3.35994e-09
9.686e-09
5.75753e-07
-1.21503e-08
-6.75251e-09
1.0034e-08
5.65583e-07
-1.25123e-08
-1.02163e-08
1.07523e-08
5.45387e-07
-1.32451e-08
-1.42893e-08
1.18733e-08
5.15452e-07
-1.38683e-08
1.42893e-08
4.76185e-07
-1.73726e-08
-1.73726e-08
1.18732e-08
1.02164e-08
5.15452e-07
-1.38683e-08
8.95582e-09
8.95586e-09
5.51678e-07
5.97971e-09
8.09694e-09
5.79322e-07
2.99011e-09
7.53508e-09
5.97985e-07
-1.18701e-16
7.26054e-09
6.07388e-07
-2.99012e-09
7.26055e-09
6.07388e-07
-5.97972e-09
7.53512e-09
5.97985e-07
-8.95584e-09
8.09703e-09
5.79322e-07
-1.18733e-08
8.95593e-09
5.51678e-07
1.02164e-08
5.15452e-07
-1.38683e-08
1.07523e-08
6.75261e-09
5.45387e-07
-1.32451e-08
8.09696e-09
5.97974e-09
5.79322e-07
5.40812e-09
5.40811e-09
6.05251e-07
2.70572e-09
5.02943e-09
6.22771e-07
-1.92769e-14
4.84273e-09
6.31602e-07
-2.70575e-09
4.84274e-09
6.31602e-07
-5.40815e-09
5.02947e-09
6.22771e-07
-8.09697e-09
5.40818e-09
6.05251e-07
-1.07523e-08
5.97979e-09
5.79322e-07
6.75265e-09
5.45387e-07
-1.32451e-08
1.00339e-08
3.36001e-09
5.65583e-07
-1.25122e-08
7.53509e-09
2.99014e-09
5.97985e-07
5.02944e-09
2.70571e-09
6.22771e-07
2.51646e-09
2.51645e-09
6.39529e-07
-2.3303e-14
2.42267e-09
6.47979e-07
-2.5165e-09
2.42268e-09
6.47979e-07
-5.02946e-09
2.51648e-09
6.39529e-07
-7.53509e-09
2.70575e-09
6.22771e-07
-1.00339e-08
2.99016e-09
5.97985e-07
3.36006e-09
5.65583e-07
-1.25122e-08
9.68598e-09
3.81135e-14
5.75753e-07
-1.21502e-08
7.26054e-09
1.48639e-14
6.07388e-07
4.84273e-09
-2.17474e-14
6.31602e-07
2.42267e-09
-3.57213e-14
6.47979e-07
-2.98942e-14
-3.26201e-14
6.56238e-07
-2.42273e-09
-3.31323e-14
6.56238e-07
-4.84278e-09
-2.7257e-14
6.47979e-07
-7.26056e-09
-1.7506e-14
6.31602e-07
-9.68597e-09
7.46586e-15
6.07388e-07
3.73778e-14
5.75753e-07
-1.21502e-08
9.68602e-09
-3.35996e-09
5.75753e-07
-1.21503e-08
7.26055e-09
-2.99008e-09
6.07388e-07
4.84275e-09
-2.70576e-09
6.31602e-07
2.42269e-09
-2.51652e-09
6.47979e-07
-2.82326e-14
-2.42273e-09
6.56238e-07
-2.42274e-09
-2.42274e-09
6.56238e-07
-4.84279e-09
-2.51652e-09
6.47979e-07
-7.26057e-09
-2.70578e-09
6.31602e-07
-9.68598e-09
-2.99014e-09
6.07388e-07
-3.35996e-09
5.75753e-07
-1.21502e-08
1.0034e-08
-6.75258e-09
5.65583e-07
-1.25122e-08
7.53511e-09
-5.97966e-09
5.97985e-07
5.02947e-09
-5.40816e-09
6.22771e-07
2.51649e-09
-5.02949e-09
6.39529e-07
-2.19852e-14
-4.84278e-09
6.47979e-07
-2.51652e-09
-4.84279e-09
6.47979e-07
-5.0295e-09
-5.02949e-09
6.39529e-07
-7.53513e-09
-5.40821e-09
6.22771e-07
-1.00339e-08
-5.97977e-09
5.97985e-07
-6.75256e-09
5.65583e-07
-1.25122e-08
1.07523e-08
-1.02164e-08
5.45387e-07
-1.32451e-08
8.09702e-09
-8.95578e-09
5.79322e-07
5.40815e-09
-8.09696e-09
6.05251e-07
2.70574e-09
-7.53512e-09
6.22771e-07
-1.24378e-14
-7.26056e-09
6.31602e-07
-2.70576e-09
-7.26058e-09
6.31602e-07
-5.40819e-09
-7.53511e-09
6.22771e-07
-8.09704e-09
-8.09703e-09
6.05251e-07
-1.07523e-08
-8.95595e-09
5.79322e-07
-1.02163e-08
5.45387e-07
-1.32451e-08
1.18733e-08
-1.42893e-08
5.15452e-07
-1.38683e-08
8.95593e-09
-1.18732e-08
5.51678e-07
5.97978e-09
-1.07522e-08
5.79322e-07
2.99016e-09
-1.00339e-08
5.97985e-07
3.39689e-15
-9.68598e-09
6.07388e-07
-2.99015e-09
-9.68599e-09
6.07388e-07
-5.97975e-09
-1.00339e-08
5.97985e-07
-8.9559e-09
-1.07523e-08
5.79322e-07
-1.18733e-08
-1.18734e-08
5.51678e-07
-1.42893e-08
5.15452e-07
-1.38683e-08
1.42893e-08
4.76185e-07
-1.73726e-08
-1.73726e-08
1.02164e-08
5.15452e-07
-1.38683e-08
6.75267e-09
5.45387e-07
-1.3245e-08
3.36004e-09
5.65583e-07
-1.25122e-08
1.96634e-14
5.75753e-07
-1.21502e-08
-3.36002e-09
5.75753e-07
-1.21502e-08
-6.75264e-09
5.65583e-07
-1.25122e-08
-1.02164e-08
5.45387e-07
-1.32451e-08
-1.42893e-08
5.15452e-07
-1.38684e-08
4.76185e-07
-1.73726e-08
-1.73726e-08
5.80323e-09
5.80322e-09
4.77303e-07
-6.36215e-09
-6.36215e-09
4.54457e-09
5.42405e-09
5.16996e-07
-5.70979e-09
3.17814e-09
5.30811e-09
5.47257e-07
-5.81195e-09
1.63232e-09
5.21074e-09
5.67667e-07
-5.7485e-09
4.91589e-14
5.15229e-09
5.77942e-07
-5.70921e-09
-1.63221e-09
5.1523e-09
5.77942e-07
-5.70922e-09
-3.17803e-09
5.21081e-09
5.67667e-07
-5.74856e-09
-4.54452e-09
5.30822e-09
5.47257e-07
-5.81199e-09
-5.80326e-09
5.42414e-09
5.16996e-07
-5.70981e-09
5.80322e-09
4.77303e-07
-6.36218e-09
-6.36214e-09
5.42405e-09
4.54455e-09
5.16996e-07
-5.70978e-09
4.43879e-09
4.4388e-09
5.53649e-07
3.12794e-09
4.33708e-09
5.81604e-07
1.61416e-09
4.24411e-09
6.00465e-07
-5.16336e-15
4.19031e-09
6.09964e-07
-1.61418e-09
4.19032e-09
6.09964e-07
-3.12795e-09
4.24418e-09
6.00465e-07
-4.43878e-09
4.33717e-09
5.81604e-07
-5.42401e-09
4.43885e-09
5.53649e-07
4.54459e-09
5.16996e-07
-5.70979e-09
5.30809e-09
3.17811e-09
5.47257e-07
-5.81192e-09
4.33706e-09
3.12795e-09
5.81604e-07
3.05416e-09
3.05417e-09
6.07817e-07
1.57463e-09
2.98384e-09
6.25511e-07
-2.68507e-14
2.94302e-09
6.34423e-07
-1.57469e-09
2.94304e-09
6.34423e-07
-3.05422e-09
2.9839e-09
6.25511e-07
-4.3371e-09
3.05425e-09
6.07817e-07
-5.30812e-09
3.12799e-09
5.81604e-07
3.17814e-09
5.47257e-07
-5.81193e-09
5.21072e-09
1.6323e-09
5.67667e-07
-5.74849e-09
4.2441e-09
1.61416e-09
6.00465e-07
2.98383e-09
1.57463e-09
6.25511e-07
1.53699e-09
1.53699e-09
6.42422e-07
-3.16623e-14
1.51511e-09
6.50944e-07
-1.53705e-09
1.51512e-09
6.50944e-07
-2.98387e-09
1.53702e-09
6.42422e-07
-4.24411e-09
1.57468e-09
6.25511e-07
-5.21072e-09
1.61419e-09
6.00465e-07
1.63231e-09
5.67667e-07
-5.74848e-09
5.15228e-09
3.91379e-14
5.77942e-07
-5.70921e-09
4.19031e-09
-7.514e-15
6.09964e-07
2.94303e-09
-2.98457e-14
6.34423e-07
1.51512e-09
-3.53913e-14
6.50944e-07
-3.25211e-14
-3.90643e-14
6.59268e-07
-1.51518e-09
-3.68784e-14
6.59268e-07
-2.94306e-09
-2.79582e-14
6.50944e-07
-4.19031e-09
-1.43938e-14
6.34423e-07
-5.15227e-09
7.82776e-16
6.09964e-07
3.0781e-14
5.77942e-07
-5.70917e-09
5.1523e-09
-1.63222e-09
5.77942e-07
-5.70922e-09
4.19032e-09
-1.61418e-09
6.09964e-07
2.94304e-09
-1.57469e-09
6.34423e-07
1.51513e-09
-1.53705e-09
6.50944e-07
-3.03026e-14
-1.51518e-09
6.59268e-07
-1.51519e-09
-1.51519e-09
6.59268e-07
-2.94308e-09
-1.53707e-09
6.50944e-07
-4.19033e-09
-1.5747e-09
6.34423e-07
-5.15229e-09
-1.6142e-09
6.09964e-07
-1.63226e-09
5.77942e-07
-5.70918e-09
5.21082e-09
-3.17807e-09
5.67667e-07
-5.74854e-09
4.24418e-09
-3.12795e-09
6.00465e-07
2.98389e-09
-3.05422e-09
6.25511e-07
1.53701e-09
-2.98388e-09
6.42422e-07
-2.4203e-14
-2.94307e-09
6.50944e-07
-1.53706e-09
-2.94309e-09
6.50944e-07
-2.98391e-09
-2.98392e-09
6.42422e-07
-4.24416e-09
-3.05425e-09
6.25511e-07
-5.21077e-09
-3.12799e-09
6.00465e-07
-3.17812e-09
5.67667e-07
-5.7485e-09
5.30823e-09
-4.54456e-09
5.47257e-07
-5.812e-09
4.33719e-09
-4.43877e-09
5.81604e-07
3.05427e-09
-4.33711e-09
6.07817e-07
1.57469e-09
-4.24413e-09
6.25511e-07
-1.14499e-14
-4.19032e-09
6.34423e-07
-1.57471e-09
-4.19033e-09
6.34423e-07
-3.05427e-09
-4.24417e-09
6.25511e-07
-4.33718e-09
-4.33716e-09
6.07817e-07
-5.30823e-09
-4.43882e-09
5.81604e-07
-4.54461e-09
5.47257e-07
-5.81199e-09
5.42412e-09
-5.80327e-09
5.16996e-07
-5.70982e-09
4.43884e-09
-5.42399e-09
5.53649e-07
3.128e-09
-5.30813e-09
5.81604e-07
1.6142e-09
-5.21074e-09
6.00465e-07
1.81524e-15
-5.15227e-09
6.09964e-07
-1.61419e-09
-5.15229e-09
6.09964e-07
-3.12799e-09
-5.21078e-09
6.00465e-07
-4.43883e-09
-5.30821e-09
5.81604e-07
-5.4241e-09
-5.42407e-09
5.53649e-07
-5.80327e-09
5.16996e-07
-5.70983e-09
5.80323e-09
4.77303e-07
-6.36219e-09
-6.36215e-09
4.54462e-09
5.16996e-07
-5.70979e-09
3.17816e-09
5.47257e-07
-5.81193e-09
1.63232e-09
5.67667e-07
-5.74847e-09
2.7785e-14
5.77942e-07
-5.70916e-09
-1.63227e-09
5.77942e-07
-5.70918e-09
-3.17812e-09
5.67667e-07
-5.7485e-09
-4.54462e-09
5.47257e-07
-5.81198e-09
-5.80326e-09
5.16996e-07
-5.70983e-09
4.77303e-07
-6.36218e-09
-6.36218e-09
2.00942e-09
2.00939e-09
4.77429e-07
-2.07266e-09
-2.07265e-09
1.66111e-09
2.02414e-09
5.17314e-07
-1.99321e-09
1.20165e-09
2.08959e-09
5.47739e-07
-2.11165e-09
6.29582e-10
2.12185e-09
5.68267e-07
-2.15026e-09
2.94816e-14
2.13349e-09
5.78605e-07
-2.16679e-09
-6.29523e-10
2.13349e-09
5.78605e-07
-2.16679e-09
-1.20158e-09
2.12186e-09
5.68267e-07
-2.15029e-09
-1.66106e-09
2.08965e-09
5.47739e-07
-2.11169e-09
-2.00947e-09
2.02427e-09
5.17314e-07
-1.99325e-09
2.00941e-09
4.77429e-07
-2.07271e-09
-2.07266e-09
2.02416e-09
1.66104e-09
5.17314e-07
-1.9932e-09
1.74736e-09
1.74737e-09
5.54202e-07
1.27899e-09
1.80727e-09
5.82354e-07
6.7495e-10
1.83596e-09
6.01355e-07
-5.07819e-15
1.84676e-09
6.10926e-07
-6.74962e-10
1.84676e-09
6.10926e-07
-1.27901e-09
1.83599e-09
6.01355e-07
-1.74736e-09
1.80731e-09
5.82354e-07
-2.02411e-09
1.74743e-09
5.54202e-07
1.66112e-09
5.17314e-07
-1.99321e-09
2.08954e-09
1.20162e-09
5.47739e-07
-2.11163e-09
1.80724e-09
1.27899e-09
5.82354e-07
1.3238e-09
1.32381e-09
6.08784e-07
6.98458e-10
1.34473e-09
6.26627e-07
-1.58279e-14
1.35247e-09
6.35616e-07
-6.98488e-10
1.35248e-09
6.35616e-07
-1.32382e-09
1.34475e-09
6.26627e-07
-1.80725e-09
1.32384e-09
6.08784e-07
-2.08954e-09
1.27903e-09
5.82354e-07
1.20168e-09
5.47739e-07
-2.11161e-09
2.12183e-09
6.29575e-10
5.68267e-07
-2.15026e-09
1.83595e-09
6.74948e-10
6.01355e-07
1.34473e-09
6.98462e-10
6.26627e-07
7.09334e-10
7.09332e-10
6.43693e-07
-2.23882e-14
7.13289e-10
6.52292e-07
-7.09377e-10
7.13295e-10
6.52292e-07
-1.34476e-09
7.09347e-10
6.43693e-07
-1.83597e-09
6.98482e-10
6.26627e-07
-2.12183e-09
6.74972e-10
6.01355e-07
6.296e-10
5.68267e-07
-2.15024e-09
2.13349e-09
2.58e-14
5.78605e-07
-2.16678e-09
1.84676e-09
-1.0756e-14
6.10926e-07
1.35247e-09
-1.81106e-14
6.35616e-07
7.13294e-10
-2.75521e-14
6.52292e-07
-2.32433e-14
-2.97565e-14
6.60695e-07
-7.1334e-10
-2.90738e-14
6.60695e-07
-1.3525e-09
-2.56247e-14
6.52292e-07
-1.84677e-09
-1.39695e-14
6.35616e-07
-2.13348e-09
-4.03855e-15
6.10926e-07
2.9357e-14
5.78605e-07
-2.16676e-09
2.13349e-09
-6.29521e-10
5.78605e-07
-2.16679e-09
1.84677e-09
-6.74972e-10
6.10926e-07
1.35248e-09
-6.98495e-10
6.35616e-07
7.133e-10
-7.09383e-10
6.52292e-07
-2.28e-14
-7.13347e-10
6.60695e-07
-7.13345e-10
-7.1335e-10
6.60695e-07
-1.35251e-09
-7.09393e-10
6.52292e-07
-1.84678e-09
-6.98507e-10
6.35616e-07
-2.13349e-09
-6.74986e-10
6.10926e-07
-6.29545e-10
5.78605e-07
-2.16676e-09
2.12186e-09
-1.20158e-09
5.68267e-07
-2.15028e-09
1.83599e-09
-1.27902e-09
6.01355e-07
1.34475e-09
-1.32384e-09
6.26627e-07
7.09347e-10
-1.34476e-09
6.43693e-07
-1.95399e-14
-1.35251e-09
6.52292e-07
-7.09388e-10
-1.35252e-09
6.52292e-07
-1.34478e-09
-1.34479e-09
6.43693e-07
-1.836e-09
-1.32386e-09
6.26627e-07
-2.12186e-09
-1.27905e-09
6.01355e-07
-1.20161e-09
5.68267e-07
-2.15027e-09
2.08966e-09
-1.66106e-09
5.47739e-07
-2.11169e-09
1.80732e-09
-1.74738e-09
5.82354e-07
1.32385e-09
-1.80727e-09
6.08784e-07
6.98484e-10
-1.83597e-09
6.26627e-07
-1.38189e-14
-1.84677e-09
6.35616e-07
-6.9851e-10
-1.84678e-09
6.35616e-07
-1.32387e-09
-1.836e-09
6.26627e-07
-1.80732e-09
-1.80731e-09
6.08784e-07
-2.08964e-09
-1.74742e-09
5.82354e-07
-1.66111e-09
5.47739e-07
-2.11166e-09
2.02427e-09
-2.00946e-09
5.17314e-07
-1.99326e-09
1.74743e-09
-2.02413e-09
5.54202e-07
1.27905e-09
-2.08958e-09
5.82354e-07
6.74979e-10
-2.12183e-09
6.01355e-07
-3.67226e-15
-2.13348e-09
6.10926e-07
-6.74988e-10
-2.13349e-09
6.10926e-07
-1.27905e-09
-2.12186e-09
6.01355e-07
-1.74742e-09
-2.08963e-09
5.82354e-07
-2.02422e-09
-2.02421e-09
5.54202e-07
-2.00946e-09
5.17314e-07
-1.99325e-09
2.00944e-09
4.77429e-07
-2.07271e-09
-2.07269e-09
1.66113e-09
5.17314e-07
-1.99321e-09
1.20167e-09
5.47739e-07
-2.11163e-09
6.29602e-10
5.68267e-07
-2.15024e-09
2.15468e-14
5.78605e-07
-2.16675e-09
-6.29554e-10
5.78605e-07
-2.16676e-09
-1.20164e-09
5.68267e-07
-2.15026e-09
-1.66114e-09
5.47739e-07
-2.11166e-09
-2.00948e-09
5.17314e-07
-1.99325e-09
4.77429e-07
-2.07272e-09
-2.07271e-09
6.93101e-10
6.93118e-10
4.77432e-07
-6.94217e-10
-6.94212e-10
5.88704e-10
7.2781e-10
5.17383e-07
-6.92303e-10
4.33504e-10
7.74746e-10
5.47869e-07
-7.49807e-10
2.29587e-10
8.02797e-10
5.68444e-07
-7.75859e-10
1.63413e-14
8.15615e-10
5.78807e-07
-7.88226e-10
-2.29553e-10
8.15615e-10
5.78807e-07
-7.88226e-10
-4.33478e-10
8.02811e-10
5.68444e-07
-7.75869e-10
-5.88715e-10
7.74805e-10
5.47869e-07
-7.49828e-10
-6.93166e-10
7.27926e-10
5.17383e-07
-6.92353e-10
6.93103e-10
4.77432e-07
-6.94255e-10
-6.94229e-10
7.27832e-10
5.88717e-10
5.17383e-07
-6.9231e-10
6.47065e-10
6.47059e-10
5.54364e-07
4.83946e-10
6.9277e-10
5.82599e-07
2.58693e-10
7.20452e-10
6.01663e-07
-4.28973e-15
7.33363e-10
6.11267e-07
-2.58705e-10
7.33368e-10
6.11267e-07
-4.83962e-10
7.20473e-10
6.01663e-07
-6.47059e-10
6.92813e-10
5.82599e-07
-7.27755e-10
6.47106e-10
5.54364e-07
5.88758e-10
5.17383e-07
-6.92297e-10
7.74748e-10
4.33516e-10
5.47869e-07
-7.49804e-10
6.92773e-10
4.83942e-10
5.82599e-07
5.19718e-10
5.19716e-10
6.0913e-07
2.7816e-10
5.41469e-10
6.27048e-07
-1.176e-14
5.51641e-10
6.36076e-07
-2.78181e-10
5.51645e-10
6.36076e-07
-5.19732e-10
5.41484e-10
6.27048e-07
-6.92773e-10
5.19746e-10
6.0913e-07
-7.74736e-10
4.83977e-10
5.82599e-07
4.33547e-10
5.47869e-07
-7.49784e-10
8.0279e-10
2.29595e-10
5.68444e-07
-7.75851e-10
7.20448e-10
2.58687e-10
6.01663e-07
5.41467e-10
2.78158e-10
6.27048e-07
2.90039e-10
2.90038e-10
6.44196e-07
-1.7132e-14
2.95597e-10
6.52838e-07
-2.90069e-10
2.95599e-10
6.52838e-07
-5.41488e-10
2.90046e-10
6.44196e-07
-7.20454e-10
2.78174e-10
6.27048e-07
-8.02781e-10
2.5871e-10
6.01663e-07
2.29616e-10
5.68444e-07
-7.7583e-10
8.15613e-10
2.29083e-14
5.78807e-07
-7.88222e-10
7.33365e-10
-1.03726e-14
6.11267e-07
5.51643e-10
-1.38828e-14
6.36076e-07
2.95599e-10
-1.93287e-14
6.52838e-07
-1.85192e-14
-2.2487e-14
6.61286e-07
-2.95632e-10
-2.26103e-14
6.61286e-07
-5.51666e-10
-2.11296e-14
6.52838e-07
-7.33372e-10
-1.47456e-14
6.36076e-07
-8.15602e-10
-4.8084e-15
6.11267e-07
3.03959e-14
5.78807e-07
-7.88196e-10
8.15619e-10
-2.29546e-10
5.78807e-07
-7.88228e-10
7.33374e-10
-2.58715e-10
6.11267e-07
5.51648e-10
-2.78187e-10
6.36076e-07
2.95601e-10
-2.90071e-10
6.52838e-07
-1.90997e-14
-2.95635e-10
6.61286e-07
-2.95639e-10
-2.95641e-10
6.61286e-07
-5.51676e-10
-2.90085e-10
6.52838e-07
-7.33382e-10
-2.78201e-10
6.36076e-07
-8.15614e-10
-2.58719e-10
6.11267e-07
-2.29556e-10
5.78807e-07
-7.88206e-10
8.0281e-10
-4.33477e-10
5.68444e-07
-7.75864e-10
7.20474e-10
-4.83977e-10
6.01663e-07
5.41485e-10
-5.19739e-10
6.27048e-07
2.90048e-10
-5.41489e-10
6.44196e-07
-1.764e-14
-5.51668e-10
6.52838e-07
-2.90083e-10
-5.51677e-10
6.52838e-07
-5.4151e-10
-5.41514e-10
6.44196e-07
-7.20479e-10
-5.19768e-10
6.27048e-07
-8.02805e-10
-4.83991e-10
6.01663e-07
-4.33484e-10
5.68444e-07
-7.75858e-10
7.74796e-10
-5.88725e-10
5.47869e-07
-7.49819e-10
6.92808e-10
-6.4708e-10
5.82599e-07
5.19745e-10
-6.92777e-10
6.0913e-07
2.78174e-10
-7.20454e-10
6.27048e-07
-1.35346e-14
-7.33373e-10
6.36076e-07
-2.78197e-10
-7.33385e-10
6.36076e-07
-5.19761e-10
-7.20488e-10
6.27048e-07
-6.92811e-10
-6.92823e-10
6.0913e-07
-7.74787e-10
-6.47107e-10
5.82599e-07
-5.88723e-10
5.47869e-07
-7.49814e-10
7.27917e-10
-6.93183e-10
5.17383e-07
-6.92345e-10
6.47114e-10
-7.27793e-10
5.54364e-07
4.8398e-10
-7.74729e-10
5.82599e-07
2.58709e-10
-8.02779e-10
6.01663e-07
-6.83477e-15
-8.15606e-10
6.11267e-07
-2.58722e-10
-8.15614e-10
6.11267e-07
-4.83993e-10
-8.02813e-10
6.01663e-07
-6.47106e-10
-7.74804e-10
5.82599e-07
-7.2788e-10
-7.27856e-10
5.54364e-07
-6.93151e-10
5.17383e-07
-6.92333e-10
6.93136e-10
4.77432e-07
-6.9429e-10
-6.94236e-10
5.88772e-10
5.17383e-07
-6.9231e-10
4.33554e-10
5.47869e-07
-7.49772e-10
2.29617e-10
5.68444e-07
-7.75827e-10
2.39199e-14
5.78807e-07
-7.88194e-10
-2.29565e-10
5.78807e-07
-7.88201e-10
-4.33508e-10
5.68444e-07
-7.75851e-10
-5.88758e-10
5.47869e-07
-7.49814e-10
-6.93168e-10
5.17383e-07
-6.9233e-10
4.77432e-07
-6.94265e-10
-6.94264e-10
2.40633e-10
2.40632e-10
4.77425e-07
-2.37449e-10
-2.3744e-10
2.0728e-10
2.58887e-10
5.17399e-07
-2.41716e-10
1.54118e-10
2.80653e-10
5.47907e-07
-2.65281e-10
8.21043e-11
2.94419e-10
5.68499e-07
-2.77096e-10
1.48182e-14
3.01026e-10
5.78871e-07
-2.82883e-10
-8.20752e-11
3.01023e-10
5.78871e-07
-2.8288e-10
-1.54095e-10
2.9443e-10
5.68499e-07
-2.771e-10
-2.07286e-10
2.80699e-10
5.47907e-07
-2.65301e-10
-2.40716e-10
2.59007e-10
5.17399e-07
-2.41757e-10
2.40657e-10
4.77425e-07
-2.37513e-10
-2.37477e-10
2.58875e-10
2.0728e-10
5.17399e-07
-2.4171e-10
2.33939e-10
2.33946e-10
5.54414e-07
1.77103e-10
2.55804e-10
5.82681e-07
9.53657e-11
2.69914e-10
6.01769e-07
-5.92765e-15
2.76805e-10
6.11386e-07
-9.53811e-11
2.76807e-10
6.11386e-07
-1.77125e-10
2.69934e-10
6.01769e-07
-2.33958e-10
2.55844e-10
5.82681e-07
-2.58852e-10
2.34007e-10
5.54414e-07
2.07336e-10
5.17399e-07
-2.41712e-10
2.80643e-10
1.54118e-10
5.47907e-07
-2.65273e-10
2.55801e-10
1.77104e-10
5.82681e-07
1.94618e-10
1.94618e-10
6.09252e-07
1.05054e-10
2.06033e-10
6.27201e-07
-1.01804e-14
2.11633e-10
6.36246e-07
-1.05074e-10
2.11635e-10
6.36246e-07
-1.94633e-10
2.06046e-10
6.27201e-07
-2.55803e-10
1.94646e-10
6.09252e-07
-2.80627e-10
1.77142e-10
5.82681e-07
1.54159e-10
5.47907e-07
-2.65247e-10
2.94416e-10
8.2106e-11
5.68499e-07
-2.77092e-10
2.69915e-10
9.53652e-11
6.01769e-07
2.06035e-10
1.05054e-10
6.27201e-07
1.11406e-10
1.11405e-10
6.44385e-07
-1.28351e-14
1.14526e-10
6.53047e-07
-1.1143e-10
1.14527e-10
6.53047e-07
-2.06051e-10
1.1141e-10
6.44385e-07
-2.69918e-10
1.05067e-10
6.27201e-07
-2.94401e-10
9.5385e-11
6.01769e-07
8.21384e-11
5.68499e-07
-2.77068e-10
3.01023e-10
1.88809e-14
5.78871e-07
-2.82879e-10
2.76807e-10
-9.47e-15
6.11386e-07
2.11636e-10
-1.24316e-14
6.36246e-07
1.14528e-10
-1.52752e-14
6.53047e-07
-1.38824e-14
-1.72624e-14
6.61515e-07
-1.14554e-10
-1.93183e-14
6.61515e-07
-2.11655e-10
-1.83383e-14
6.53047e-07
-2.76814e-10
-1.29822e-14
6.36246e-07
-3.01015e-10
-3.54164e-15
6.11386e-07
2.9398e-14
5.78871e-07
-2.82851e-10
3.01027e-10
-8.20718e-11
5.78871e-07
-2.82881e-10
2.76814e-10
-9.53886e-11
6.11386e-07
2.1164e-10
-1.05078e-10
6.36246e-07
1.1453e-10
-1.11432e-10
6.53047e-07
-1.57929e-14
-1.14558e-10
6.61515e-07
-1.1456e-10
-1.14563e-10
6.61515e-07
-2.11663e-10
-1.11443e-10
6.53047e-07
-2.76823e-10
-1.0509e-10
6.36246e-07
-3.01025e-10
-9.53941e-11
6.11386e-07
-8.20782e-11
5.78871e-07
-2.82862e-10
2.94431e-10
-1.5409e-10
5.68499e-07
-2.771e-10
2.69937e-10
-1.77137e-10
6.01769e-07
2.06049e-10
-1.94639e-10
6.27201e-07
1.11412e-10
-2.06052e-10
6.44385e-07
-1.52692e-14
-2.11656e-10
6.53047e-07
-1.11441e-10
-2.11664e-10
6.53047e-07
-2.0607e-10
-2.06072e-10
6.44385e-07
-2.69943e-10
-1.94662e-10
6.27201e-07
-2.94428e-10
-1.77151e-10
6.01769e-07
-1.54104e-10
5.68499e-07
-2.77093e-10
2.80689e-10
-2.07276e-10
5.47907e-07
-2.65293e-10
2.55839e-10
-2.33975e-10
5.82681e-07
1.94645e-10
-2.55813e-10
6.09252e-07
1.05068e-10
-2.6992e-10
6.27201e-07
-1.24806e-14
-2.76813e-10
6.36246e-07
-1.0509e-10
-2.76823e-10
6.36246e-07
-1.94662e-10
-2.69946e-10
6.27201e-07
-2.55846e-10
-2.55845e-10
6.09252e-07
-2.80687e-10
-2.33993e-10
5.82681e-07
-2.07301e-10
5.47907e-07
-2.65285e-10
2.58991e-10
-2.40695e-10
5.17399e-07
-2.41751e-10
2.34005e-10
-2.58874e-10
5.54414e-07
1.77145e-10
-2.80639e-10
5.82681e-07
9.53869e-11
-2.94401e-10
6.01769e-07
-5.58135e-15
-3.01014e-10
6.11386e-07
-9.53986e-11
-3.01023e-10
6.11386e-07
-1.77154e-10
-2.9443e-10
6.01769e-07
-2.34002e-10
-2.80681e-10
5.82681e-07
-2.58951e-10
-2.58927e-10
5.54414e-07
-2.40699e-10
5.17399e-07
-2.41734e-10
2.40682e-10
4.77425e-07
-2.37519e-10
-2.3748e-10
2.07342e-10
5.17399e-07
-2.41716e-10
1.54159e-10
5.47907e-07
-2.65249e-10
8.21336e-11
5.68499e-07
-2.77064e-10
2.28562e-14
5.78871e-07
-2.8285e-10
-8.20863e-11
5.78871e-07
-2.82858e-10
-1.54115e-10
5.68499e-07
-2.77089e-10
-2.07315e-10
5.47907e-07
-2.65276e-10
-2.40697e-10
5.17399e-07
-2.41731e-10
4.77425e-07
-2.37509e-10
-2.37507e-10
8.41643e-11
8.41873e-11
4.77422e-07
-8.24644e-11
-8.24517e-11
7.29945e-11
9.18462e-11
5.17403e-07
-8.49168e-11
5.45561e-11
1.00643e-10
5.47919e-07
-9.39488e-11
2.91586e-11
1.06371e-10
5.68516e-07
-9.8676e-11
1.16203e-14
1.09183e-10
5.78892e-07
-1.0103e-10
-2.91368e-11
1.09183e-10
5.78892e-07
-1.01028e-10
-5.45446e-11
1.06383e-10
5.68516e-07
-9.86786e-11
-7.30194e-11
1.00679e-10
5.47919e-07
-9.3952e-11
-8.42221e-11
9.1914e-11
5.17403e-07
-8.4949e-11
8.42074e-11
4.77422e-07
-8.25053e-11
-8.24899e-11
9.18378e-11
7.30258e-11
5.17403e-07
-8.49148e-11
8.37286e-11
8.37291e-11
5.5443e-07
6.38092e-11
9.27236e-11
5.82709e-07
3.44976e-11
9.87169e-11
6.01806e-07
-7.90698e-15
1.01706e-10
6.11428e-07
-3.45171e-11
1.01709e-10
6.11428e-07
-6.38328e-11
9.87321e-11
6.01806e-07
-8.37457e-11
9.27553e-11
5.82709e-07
-9.1828e-11
8.37727e-11
5.5443e-07
7.30617e-11
5.17403e-07
-8.49195e-11
1.00655e-10
5.45679e-11
5.47919e-07
-9.39396e-11
9.27355e-11
6.38108e-11
5.82709e-07
7.11256e-11
7.11186e-11
6.09295e-07
3.85833e-11
7.60462e-11
6.27256e-07
-7.38562e-15
7.8516e-11
6.36308e-07
-3.8597e-11
7.8518e-11
6.36308e-07
-7.11325e-11
7.60555e-11
6.27256e-07
-9.27294e-11
7.11393e-11
6.09295e-07
-1.00632e-10
6.38377e-11
5.82709e-07
5.46022e-11
5.47919e-07
-9.39183e-11
1.06377e-10
2.9165e-11
5.68516e-07
-9.86738e-11
9.87231e-11
3.44992e-11
6.01806e-07
7.60485e-11
3.85798e-11
6.27256e-07
4.13511e-11
4.13496e-11
6.44455e-07
-8.44767e-15
4.27407e-11
6.53124e-07
-4.13652e-11
4.27402e-11
6.53124e-07
-7.60535e-11
4.13511e-11
6.44455e-07
-9.87148e-11
3.85878e-11
6.27256e-07
-1.06355e-10
3.45132e-11
6.01806e-07
2.91925e-11
5.68516e-07
-9.8646e-11
1.09182e-10
1.57344e-14
5.78892e-07
-1.01026e-10
1.01707e-10
-8.9974e-15
6.11428e-07
7.85159e-11
-1.07285e-14
6.36308e-07
4.27415e-11
-1.1636e-14
6.53124e-07
-1.17522e-14
-1.39197e-14
6.61601e-07
-4.27623e-11
-1.67665e-14
6.61601e-07
-7.85301e-11
-1.66707e-14
6.53124e-07
-1.0171e-10
-1.24819e-14
6.36308e-07
-1.09173e-10
-4.06804e-15
6.11428e-07
2.82155e-14
5.78892e-07
-1.01e-10
1.09187e-10
-2.91374e-11
5.78892e-07
-1.01028e-10
1.01713e-10
-3.45194e-11
6.11428e-07
7.85205e-11
-3.86011e-11
6.36308e-07
4.27429e-11
-4.13696e-11
6.53124e-07
-1.39761e-14
-4.27645e-11
6.61601e-07
-4.27681e-11
-4.27696e-11
6.61601e-07
-7.85393e-11
-4.13809e-11
6.53124e-07
-1.01722e-10
-3.86104e-11
6.36308e-07
-1.09183e-10
-3.45238e-11
6.11428e-07
-2.91357e-11
5.78892e-07
-1.01011e-10
1.06385e-10
-5.4549e-11
5.68516e-07
-9.86772e-11
9.87354e-11
-6.3838e-11
6.01806e-07
7.60573e-11
-7.11378e-11
6.27256e-07
4.13532e-11
-7.60588e-11
6.44455e-07
-1.39464e-14
-7.85307e-11
6.53124e-07
-4.13792e-11
-7.85393e-11
6.53124e-07
-7.60772e-11
-7.60782e-11
6.44455e-07
-9.87453e-11
-7.11556e-11
6.27256e-07
-1.06384e-10
-6.38494e-11
6.01806e-07
-5.45508e-11
5.68516e-07
-9.86723e-11
1.00674e-10
-7.30241e-11
5.47919e-07
-9.39467e-11
9.27559e-11
-8.37589e-11
5.82709e-07
7.1141e-11
-9.27357e-11
6.09295e-07
3.85902e-11
-9.87189e-11
6.27256e-07
-1.09524e-14
-1.01708e-10
6.36308e-07
-3.86104e-11
-1.0172e-10
6.36308e-07
-7.1157e-11
-9.87446e-11
6.27256e-07
-9.27648e-11
-9.27616e-11
6.09295e-07
-1.00679e-10
-8.37757e-11
5.82709e-07
-7.30271e-11
5.47919e-07
-9.39514e-11
9.19255e-11
-8.42383e-11
5.17403e-07
-8.49497e-11
8.37755e-11
-9.18345e-11
5.5443e-07
6.3841e-11
-1.00636e-10
5.82709e-07
3.45168e-11
-1.06357e-10
6.01806e-07
-2.88556e-15
-1.0917e-10
6.11428e-07
-3.45236e-11
-1.09181e-10
6.11428e-07
-6.38482e-11
-1.06383e-10
6.01806e-07
-8.37736e-11
-1.00676e-10
5.82709e-07
-9.18953e-11
-9.18895e-11
5.5443e-07
-8.42333e-11
5.17403e-07
-8.49289e-11
8.42181e-11
4.77422e-07
-8.25239e-11
-8.24968e-11
7.30626e-11
5.17403e-07
-8.49142e-11
5.46006e-11
5.47919e-07
-9.39176e-11
2.91895e-11
5.68516e-07
-9.86474e-11
2.53375e-14
5.78892e-07
-1.01e-10
-2.91368e-11
5.78892e-07
-1.01011e-10
-5.45487e-11
5.68516e-07
-9.86716e-11
-7.30209e-11
5.47919e-07
-9.3949e-11
-8.42204e-11
5.17403e-07
-8.49284e-11
4.77422e-07
-8.25044e-11
-8.25129e-11
2.96041e-11
2.96133e-11
4.7742e-07
-2.89163e-11
-2.89054e-11
2.57446e-11
3.25815e-11
5.17404e-07
-2.99704e-11
1.92892e-11
3.59492e-11
5.47922e-07
-3.33435e-11
1.03262e-11
3.81617e-11
5.68522e-07
-3.51362e-11
6.91708e-15
3.92526e-11
5.78899e-07
-3.60315e-11
-1.03197e-11
3.92556e-11
5.78899e-07
-3.60288e-11
-1.92988e-11
3.81693e-11
5.68522e-07
-3.51325e-11
-2.57904e-11
3.59763e-11
5.47922e-07
-3.33383e-11
-2.96625e-11
3.26464e-11
5.17404e-07
-3.00136e-11
2.96445e-11
4.7742e-07
-2.89617e-11
-2.89454e-11
3.25671e-11
2.57603e-11
5.17404e-07
-2.99639e-11
2.98275e-11
2.98369e-11
5.54435e-07
2.28137e-11
3.33097e-11
5.82719e-07
1.236e-11
3.56525e-11
6.01819e-07
-8.18567e-15
3.68294e-11
6.11443e-07
-1.23798e-11
3.6834e-11
6.11443e-07
-2.28412e-11
3.56644e-11
6.01819e-07
-2.98545e-11
3.3331e-11
5.82719e-07
-3.25772e-11
2.98789e-11
5.54435e-07
2.58026e-11
5.17404e-07
-2.99749e-11
3.59333e-11
1.92986e-11
5.47922e-07
-3.33266e-11
3.32974e-11
2.28185e-11
5.82719e-07
2.56525e-11
2.56615e-11
6.09311e-07
1.39537e-11
2.76058e-11
6.27276e-07
-6.56736e-15
2.85888e-11
6.3633e-07
-1.39675e-11
2.85912e-11
6.3633e-07
-2.56663e-11
2.76136e-11
6.27276e-07
-3.3308e-11
2.56768e-11
6.09311e-07
-3.593e-11
2.28445e-11
5.82719e-07
1.93364e-11
5.47922e-07
-3.3317e-11
3.81487e-11
1.0334e-11
5.68522e-07
-3.51262e-11
3.56419e-11
1.23617e-11
6.01819e-07
2.75996e-11
1.3958e-11
6.27276e-07
1.50558e-11
1.50572e-11
6.4448e-07
-7.19643e-15
1.56134e-11
6.53152e-07
-1.50687e-11
1.56133e-11
6.53152e-07
-2.76084e-11
1.50581e-11
6.4448e-07
-3.56419e-11
1.39627e-11
6.27276e-07
-3.81341e-11
1.23741e-11
6.01819e-07
1.03629e-11
5.68522e-07
-3.51017e-11
3.92512e-11
1.25069e-14
5.78899e-07
-3.60297e-11
3.6827e-11
-5.80818e-15
6.11443e-07
2.85888e-11
-5.80525e-15
6.3633e-07
1.56162e-11
-8.81471e-15
6.53152e-07
-9.4503e-15
-1.18894e-14
6.61632e-07
-1.56327e-11
-1.32765e-14
6.61632e-07
-2.86003e-11
-1.24668e-14
6.53152e-07
-3.68297e-11
-9.99053e-15
6.3633e-07
-3.9242e-11
-5.08423e-15
6.11443e-07
2.35575e-14
5.78899e-07
-3.60034e-11
3.9252e-11
-1.03134e-11
5.78899e-07
-3.60269e-11
3.68316e-11
-1.23776e-11
6.11443e-07
2.85926e-11
-1.39692e-11
6.3633e-07
1.56168e-11
-1.50713e-11
6.53152e-07
-1.1353e-14
-1.56331e-11
6.61632e-07
-1.56371e-11
-1.56363e-11
6.61632e-07
-2.86079e-11
-1.50793e-11
6.53152e-07
-3.68407e-11
-1.39791e-11
6.3633e-07
-3.92524e-11
-1.23868e-11
6.11443e-07
-1.03204e-11
5.78899e-07
-3.60116e-11
3.8157e-11
-1.92874e-11
5.68522e-07
-3.51261e-11
3.56587e-11
-2.28416e-11
6.01819e-07
2.76117e-11
-2.56671e-11
6.27276e-07
1.5059e-11
-2.76112e-11
6.4448e-07
-1.13886e-14
-2.85992e-11
6.53152e-07
-1.50795e-11
-2.86054e-11
6.53152e-07
-2.76269e-11
-2.76249e-11
6.4448e-07
-3.56695e-11
-2.56835e-11
6.27276e-07
-3.81667e-11
-2.28554e-11
6.01819e-07
-1.93084e-11
5.68522e-07
-3.51232e-11
3.59653e-11
-2.5769e-11
5.47922e-07
-3.33372e-11
3.33279e-11
-2.98586e-11
5.82719e-07
2.56741e-11
-3.3306e-11
6.09311e-07
1.39634e-11
-3.56467e-11
6.27276e-07
-7.78718e-15
-3.68296e-11
6.3633e-07
-1.39783e-11
-3.6837e-11
6.3633e-07
-2.56855e-11
-3.56647e-11
6.27276e-07
-3.33347e-11
-3.33296e-11
6.09311e-07
-3.59699e-11
-2.9878e-11
5.82719e-07
-2.57947e-11
5.47922e-07
-3.33391e-11
3.26672e-11
-2.96625e-11
5.17404e-07
-3.00138e-11
2.9876e-11
-3.25571e-11
5.54435e-07
2.28453e-11
-3.59341e-11
5.82719e-07
1.23788e-11
-3.81446e-11
6.01819e-07
-1.88812e-15
-3.92418e-11
6.11443e-07
-1.23834e-11
-3.92489e-11
6.11443e-07
-2.28497e-11
-3.81638e-11
6.01819e-07
-2.98667e-11
-3.59704e-11
5.82719e-07
-3.26129e-11
-3.26191e-11
5.54435e-07
-2.96502e-11
5.17404e-07
-2.99975e-11
2.96738e-11
4.7742e-07
-2.89765e-11
-2.89571e-11
2.58214e-11
5.17404e-07
-2.99575e-11
1.93436e-11
5.47922e-07
-3.33141e-11
1.03616e-11
5.68522e-07
-3.51055e-11
2.18862e-14
5.78899e-07
-3.60038e-11
-1.03156e-11
5.78899e-07
-3.60127e-11
-1.92977e-11
5.68522e-07
-3.51239e-11
-2.57828e-11
5.47922e-07
-3.33401e-11
-2.96534e-11
5.17404e-07
-2.99905e-11
4.7742e-07
-2.89587e-11
-2.89495e-11
1.04938e-11
1.04535e-11
4.7742e-07
-1.02107e-11
-1.02114e-11
9.14288e-12
1.15744e-11
5.17405e-07
-1.06221e-11
6.84708e-12
1.28143e-11
5.47924e-07
-1.18361e-11
3.67112e-12
1.36352e-11
5.68524e-07
-1.25048e-11
9.80882e-15
1.40496e-11
5.78902e-07
-1.2839e-11
-3.65741e-12
1.40532e-11
5.78902e-07
-1.28386e-11
-6.83647e-12
1.36378e-11
5.68524e-07
-1.2506e-11
-9.12183e-12
1.28144e-11
5.47924e-07
-1.1841e-11
-1.04907e-11
1.16185e-11
5.17405e-07
-1.06446e-11
1.05224e-11
4.7742e-07
-1.02485e-11
-1.02353e-11
1.15566e-11
9.10755e-12
5.17405e-07
-1.06076e-11
1.06079e-11
1.062e-11
5.54437e-07
8.12913e-12
1.19066e-11
5.82722e-07
4.4092e-12
1.27855e-11
6.01824e-07
-3.85942e-15
1.32336e-11
6.11448e-07
-4.42037e-12
1.32374e-11
6.11448e-07
-8.14732e-12
1.27911e-11
6.01824e-07
-1.06301e-11
1.19125e-11
5.82722e-07
-1.15583e-11
1.06476e-11
5.54437e-07
9.16227e-12
5.17405e-07
-1.0599e-11
1.27955e-11
6.83903e-12
5.47924e-07
-1.18394e-11
1.18966e-11
8.13102e-12
5.82722e-07
9.18989e-12
9.1922e-12
6.09316e-07
5.00756e-12
9.92699e-12
6.27283e-07
-2.28289e-15
1.03025e-11
6.36338e-07
-5.01198e-12
1.03043e-11
6.36338e-07
-9.19602e-12
9.93108e-12
6.27283e-07
-1.19065e-11
9.20076e-12
6.09316e-07
-1.2799e-11
8.15331e-12
5.82722e-07
6.87537e-12
5.47924e-07
-1.18259e-11
1.3636e-11
3.6675e-12
5.68524e-07
-1.25087e-11
1.27861e-11
4.40893e-12
6.01824e-07
9.93034e-12
5.00669e-12
6.27283e-07
5.42708e-12
5.42364e-12
6.44489e-07
-2.81556e-15