/*--------------------------------*- C++ -*----------------------------------*\
| =========                 |                                                 |
| \\      /  F ield         | OpenFOAM: The Open Source CFD Toolbox           |
|  \\    /   O peration     | Version:  2412                                  |
|   \\  /    A nd           | Website:  www.openfoam.com                      |
|    \\/     M anipulation  |                                                 |
\*---------------------------------------------------------------------------*/
FoamFile
{
    version     2.0;
    format      ascii;
    arch        "LSB;label=32;scalar=64";
    class       volVectorField;
    location    "0.1";
    object      U;
}
// * * * * * * * * * * * * * * * * * * * * * * * * * * * * * * * * * * * * * //

dimensions      [0 1 -1 0 0 0 0];

internalField   nonuniform List<vector> 
15000
(
(0.000102734 0.000102734 0.0100653)
(6.66362e-05 8.46646e-05 0.010059)
(4.63229e-05 8.06536e-05 0.0100545)
(2.71989e-05 7.69235e-05 0.0100517)
(8.97901e-06 7.50955e-05 0.0100503)
(-8.97857e-06 7.50953e-05 0.0100503)
(-2.71985e-05 7.69231e-05 0.0100517)
(-4.63229e-05 8.06533e-05 0.0100545)
(-6.66365e-05 8.46644e-05 0.010059)
(-0.000102734 0.000102734 0.0100653)
(8.46645e-05 6.66362e-05 0.010059)
(6.15367e-05 6.1537e-05 0.0100527)
(4.32123e-05 5.8534e-05 0.0100483)
(2.55474e-05 5.66627e-05 0.0100455)
(8.44761e-06 5.5747e-05 0.0100442)
(-8.4476e-06 5.57469e-05 0.0100442)
(-2.55472e-05 5.66621e-05 0.0100455)
(-4.32119e-05 5.85332e-05 0.0100483)
(-6.15367e-05 6.15365e-05 0.0100527)
(-8.46649e-05 6.6636e-05 0.010059)
(8.06539e-05 4.63226e-05 0.0100545)
(5.85339e-05 4.32124e-05 0.0100483)
(4.09074e-05 4.09077e-05 0.010044)
(2.4147e-05 3.9369e-05 0.0100414)
(7.9815e-06 3.86142e-05 0.0100401)
(-7.98175e-06 3.86142e-05 0.0100401)
(-2.41473e-05 3.93688e-05 0.0100414)
(-4.09074e-05 4.09069e-05 0.010044)
(-5.85336e-05 4.32114e-05 0.0100483)
(-8.06536e-05 4.63221e-05 0.0100545)
(7.69235e-05 2.71987e-05 0.0100517)
(5.66629e-05 2.55472e-05 0.0100455)
(3.9369e-05 2.4147e-05 0.0100414)
(2.31936e-05 2.31938e-05 0.0100388)
(7.66143e-06 2.27195e-05 0.0100376)
(-7.66174e-06 2.27195e-05 0.0100376)
(-2.31941e-05 2.31937e-05 0.0100388)
(-3.93693e-05 2.41469e-05 0.0100414)
(-5.66626e-05 2.5547e-05 0.0100455)
(-7.69232e-05 2.71984e-05 0.0100517)
(7.50955e-05 8.97913e-06 0.0100503)
(5.57472e-05 8.44763e-06 0.0100442)
(3.86143e-05 7.98138e-06 0.0100401)
(2.27195e-05 7.66138e-06 0.0100376)
(7.50114e-06 7.50116e-06 0.0100364)
(-7.50152e-06 7.50113e-06 0.0100364)
(-2.27198e-05 7.66137e-06 0.0100376)
(-3.86145e-05 7.98144e-06 0.0100401)
(-5.57471e-05 8.44759e-06 0.0100442)
(-7.50952e-05 8.97894e-06 0.0100503)
(7.50954e-05 -8.97869e-06 0.0100503)
(5.57469e-05 -8.44745e-06 0.0100442)
(3.86141e-05 -7.98163e-06 0.0100401)
(2.27195e-05 -7.66179e-06 0.0100376)
(7.50118e-06 -7.50155e-06 0.0100364)
(-7.50152e-06 -7.50153e-06 0.0100364)
(-2.27198e-05 -7.66168e-06 0.0100376)
(-3.86144e-05 -7.98164e-06 0.0100401)
(-5.57468e-05 -8.44751e-06 0.0100442)
(-7.5095e-05 -8.97848e-06 0.0100503)
(7.69233e-05 -2.71987e-05 0.0100517)
(5.66625e-05 -2.55475e-05 0.0100455)
(3.93687e-05 -2.41471e-05 0.0100414)
(2.31935e-05 -2.31939e-05 0.0100388)
(7.6614e-06 -2.27198e-05 0.0100376)
(-7.66165e-06 -2.27198e-05 0.0100376)
(-2.31939e-05 -2.31938e-05 0.0100388)
(-3.9369e-05 -2.41469e-05 0.0100414)
(-5.66622e-05 -2.5547e-05 0.0100455)
(-7.69229e-05 -2.71983e-05 0.0100517)
(8.06531e-05 -4.63225e-05 0.0100545)
(5.85335e-05 -4.32124e-05 0.0100483)
(4.09073e-05 -4.09077e-05 0.010044)
(2.41468e-05 -3.93691e-05 0.0100414)
(7.98138e-06 -3.86145e-05 0.0100401)
(-7.98153e-06 -3.86144e-05 0.0100401)
(-2.41469e-05 -3.93689e-05 0.0100414)
(-4.09073e-05 -4.09068e-05 0.010044)
(-5.85333e-05 -4.32115e-05 0.0100483)
(-8.06533e-05 -4.63224e-05 0.0100545)
(8.4664e-05 -6.66361e-05 0.010059)
(6.15361e-05 -6.15363e-05 0.0100527)
(4.32119e-05 -5.8534e-05 0.0100483)
(2.55471e-05 -5.66628e-05 0.0100455)
(8.44744e-06 -5.57472e-05 0.0100442)
(-8.4474e-06 -5.5747e-05 0.0100442)
(-2.55466e-05 -5.66625e-05 0.0100455)
(-4.32116e-05 -5.85331e-05 0.0100483)
(-6.15367e-05 -6.1536e-05 0.0100527)
(-8.46643e-05 -6.66362e-05 0.010059)
(0.000102733 -0.000102734 0.0100653)
(6.66356e-05 -8.46641e-05 0.010059)
(4.63219e-05 -8.06536e-05 0.0100545)
(2.71985e-05 -7.69233e-05 0.0100517)
(8.9789e-06 -7.50952e-05 0.0100503)
(-8.97865e-06 -7.50951e-05 0.0100503)
(-2.7198e-05 -7.69231e-05 0.0100517)
(-4.63218e-05 -8.06537e-05 0.0100545)
(-6.66364e-05 -8.46643e-05 0.010059)
(-0.000102734 -0.000102733 0.0100653)
(3.96371e-05 3.9637e-05 0.0101449)
(2.83965e-05 3.6789e-05 0.0101356)
(2.10849e-05 3.75267e-05 0.0101289)
(1.29334e-05 3.75094e-05 0.0101245)
(4.35807e-06 3.74655e-05 0.0101223)
(-4.35744e-06 3.74653e-05 0.0101223)
(-1.29331e-05 3.7509e-05 0.0101245)
(-2.10852e-05 3.75263e-05 0.0101289)
(-2.83969e-05 3.67886e-05 0.0101356)
(-3.96374e-05 3.96367e-05 0.0101449)
(3.6789e-05 2.83963e-05 0.0101356)
(2.93169e-05 2.93168e-05 0.010126)
(2.19419e-05 3.01265e-05 0.0101189)
(1.35187e-05 3.05947e-05 0.0101143)
(4.56252e-06 3.08043e-05 0.010112)
(-4.56259e-06 3.08041e-05 0.010112)
(-1.35186e-05 3.0594e-05 0.0101143)
(-2.19418e-05 3.01258e-05 0.0101189)
(-2.93167e-05 2.93164e-05 0.010126)
(-3.6789e-05 2.83962e-05 0.0101356)
(3.75267e-05 2.10849e-05 0.0101289)
(3.01267e-05 2.19419e-05 0.0101189)
(2.24483e-05 2.24483e-05 0.0101117)
(1.3801e-05 2.26983e-05 0.0101071)
(4.65183e-06 2.27982e-05 0.0101048)
(-4.65215e-06 2.27982e-05 0.0101048)
(-1.38011e-05 2.2698e-05 0.0101071)
(-2.24483e-05 2.24479e-05 0.0101117)
(-3.01264e-05 2.19415e-05 0.0101189)
(-3.75266e-05 2.10845e-05 0.0101289)
(3.75095e-05 1.29335e-05 0.0101245)
(3.05948e-05 1.35186e-05 0.0101143)
(2.26983e-05 1.38009e-05 0.0101071)
(1.39203e-05 1.39202e-05 0.0101025)
(4.68673e-06 1.39617e-05 0.0101002)
(-4.68712e-06 1.39616e-05 0.0101002)
(-1.39206e-05 1.39202e-05 0.0101025)
(-2.26984e-05 1.38007e-05 0.0101071)
(-3.05946e-05 1.35184e-05 0.0101143)
(-3.75092e-05 1.29331e-05 0.0101245)
(3.74655e-05 4.35807e-06 0.0101223)
(3.08043e-05 4.56249e-06 0.010112)
(2.27983e-05 4.6518e-06 0.0101048)
(1.39617e-05 4.6867e-06 0.0101002)
(4.69756e-06 4.69752e-06 0.010098)
(-4.69796e-06 4.69752e-06 0.010098)
(-1.3962e-05 4.68671e-06 0.0101002)
(-2.27984e-05 4.65182e-06 0.0101048)
(-3.08043e-05 4.56246e-06 0.010112)
(-3.74653e-05 4.35789e-06 0.0101223)
(3.74653e-05 -4.35754e-06 0.0101223)
(3.08041e-05 -4.56257e-06 0.010112)
(2.27982e-05 -4.65216e-06 0.0101048)
(1.39617e-05 -4.68715e-06 0.0101002)
(4.69756e-06 -4.698e-06 0.010098)
(-4.69793e-06 -4.69798e-06 0.010098)
(-1.3962e-05 -4.68706e-06 0.0101002)
(-2.27983e-05 -4.65201e-06 0.0101048)
(-3.08041e-05 -4.56245e-06 0.010112)
(-3.74651e-05 -4.35751e-06 0.0101223)
(3.75089e-05 -1.2933e-05 0.0101245)
(3.05941e-05 -1.35186e-05 0.0101143)
(2.2698e-05 -1.38011e-05 0.0101071)
(1.39202e-05 -1.39206e-05 0.0101025)
(4.68674e-06 -1.39621e-05 0.0101002)
(-4.68703e-06 -1.3962e-05 0.0101002)
(-1.39204e-05 -1.39204e-05 0.0101025)
(-2.26981e-05 -1.3801e-05 0.0101071)
(-3.05942e-05 -1.35184e-05 0.0101143)
(-3.75089e-05 -1.29327e-05 0.0101245)
(3.75263e-05 -2.10848e-05 0.0101289)
(3.01258e-05 -2.19417e-05 0.0101189)
(2.24478e-05 -2.24483e-05 0.0101117)
(1.38007e-05 -2.26984e-05 0.0101071)
(4.65183e-06 -2.27984e-05 0.0101048)
(-4.65198e-06 -2.27983e-05 0.0101048)
(-1.38009e-05 -2.26982e-05 0.0101071)
(-2.2448e-05 -2.24481e-05 0.0101117)
(-3.01257e-05 -2.19415e-05 0.0101189)
(-3.75261e-05 -2.10843e-05 0.0101289)
(3.67887e-05 -2.83968e-05 0.0101356)
(2.93162e-05 -2.93166e-05 0.010126)
(2.19414e-05 -3.01264e-05 0.0101189)
(1.35183e-05 -3.05946e-05 0.0101143)
(4.56243e-06 -3.08043e-05 0.010112)
(-4.56242e-06 -3.08041e-05 0.010112)
(-1.35184e-05 -3.05942e-05 0.0101143)
(-2.19414e-05 -3.01257e-05 0.0101189)
(-2.93159e-05 -2.9316e-05 0.010126)
(-3.67885e-05 -2.83964e-05 0.0101356)
(3.96368e-05 -3.96375e-05 0.0101449)
(2.83961e-05 -3.6789e-05 0.0101356)
(2.10844e-05 -3.75265e-05 0.0101289)
(1.29331e-05 -3.75092e-05 0.0101245)
(4.35792e-06 -3.74652e-05 0.0101223)
(-4.35754e-06 -3.74651e-05 0.0101223)
(-1.29327e-05 -3.75089e-05 0.0101245)
(-2.10842e-05 -3.75261e-05 0.0101289)
(-2.83964e-05 -3.67887e-05 0.0101356)
(-3.96373e-05 -3.96371e-05 0.0101449)
(1.33139e-05 1.33138e-05 0.0101568)
(1.01138e-05 1.33148e-05 0.010153)
(7.8118e-06 1.42106e-05 0.01015)
(4.91788e-06 1.46643e-05 0.0101479)
(1.67835e-06 1.4883e-05 0.0101468)
(-1.67795e-06 1.48829e-05 0.0101468)
(-4.91751e-06 1.4664e-05 0.0101479)
(-7.81176e-06 1.42101e-05 0.01015)
(-1.0114e-05 1.33141e-05 0.010153)
(-1.33141e-05 1.33135e-05 0.0101568)
(1.33149e-05 1.01137e-05 0.010153)
(1.12468e-05 1.12467e-05 0.0101485)
(8.79768e-06 1.22112e-05 0.0101449)
(5.57959e-06 1.28507e-05 0.0101424)
(1.91036e-06 1.31682e-05 0.0101411)
(-1.91042e-06 1.31681e-05 0.0101411)
(-5.57968e-06 1.28503e-05 0.0101424)
(-8.79784e-06 1.22106e-05 0.0101449)
(-1.12465e-05 1.12461e-05 0.0101485)
(-1.33146e-05 1.01133e-05 0.010153)
(1.42107e-05 7.81202e-06 0.01015)
(1.22113e-05 8.7977e-06 0.0101449)
(9.54251e-06 9.54249e-06 0.0101408)
(6.04639e-06 1.00224e-05 0.0101381)
(2.06861e-06 1.02564e-05 0.0101367)
(-2.0688e-06 1.02564e-05 0.0101367)
(-6.04653e-06 1.00222e-05 0.0101381)
(-9.5426e-06 9.54234e-06 0.0101408)
(-1.22113e-05 8.7976e-06 0.0101449)
(-1.42105e-05 7.81153e-06 0.01015)
(1.46644e-05 4.91792e-06 0.0101479)
(1.28507e-05 5.57952e-06 0.0101424)
(1.00223e-05 6.04635e-06 0.0101381)
(6.34366e-06 6.34361e-06 0.0101352)
(2.169e-06 6.4877e-06 0.0101337)
(-2.16928e-06 6.48769e-06 0.0101337)
(-6.34387e-06 6.34352e-06 0.0101352)
(-1.00225e-05 6.04621e-06 0.0101381)
(-1.28507e-05 5.57939e-06 0.0101424)
(-1.46642e-05 4.91774e-06 0.0101479)
(1.4883e-05 1.6783e-06 0.0101468)
(1.31682e-05 1.91032e-06 0.0101411)
(1.02564e-05 2.0686e-06 0.0101367)
(6.48774e-06 2.16896e-06 0.0101337)
(2.21749e-06 2.21745e-06 0.0101322)
(-2.21779e-06 2.21746e-06 0.0101322)
(-6.488e-06 2.16895e-06 0.0101337)
(-1.02566e-05 2.06856e-06 0.0101367)
(-1.31682e-05 1.91029e-06 0.0101411)
(-1.48828e-05 1.67826e-06 0.0101468)
(1.48829e-05 -1.67796e-06 0.0101468)
(1.31681e-05 -1.91045e-06 0.0101411)
(1.02564e-05 -2.06881e-06 0.0101367)
(6.48771e-06 -2.1693e-06 0.0101337)
(2.21749e-06 -2.21783e-06 0.0101322)
(-2.21778e-06 -2.21782e-06 0.0101322)
(-6.48795e-06 -2.16927e-06 0.0101337)
(-1.02565e-05 -2.06874e-06 0.0101367)
(-1.31681e-05 -1.91033e-06 0.0101411)
(-1.48827e-05 -1.67786e-06 0.0101468)
(1.46639e-05 -4.91743e-06 0.0101479)
(1.28503e-05 -5.57975e-06 0.0101424)
(1.00222e-05 -6.04657e-06 0.0101381)
(6.34353e-06 -6.34387e-06 0.0101352)
(2.16897e-06 -6.48801e-06 0.0101337)
(-2.16923e-06 -6.488e-06 0.0101337)
(-6.34373e-06 -6.34377e-06 0.0101352)
(-1.00223e-05 -6.0464e-06 0.0101381)
(-1.28503e-05 -5.57953e-06 0.0101424)
(-1.46639e-05 -4.91727e-06 0.0101479)
(1.42099e-05 -7.81153e-06 0.01015)
(1.22105e-05 -8.79778e-06 0.0101449)
(9.5424e-06 -9.54267e-06 0.0101408)
(6.04627e-06 -1.00225e-05 0.0101381)
(2.06855e-06 -1.02566e-05 0.0101367)
(-2.06873e-06 -1.02565e-05 0.0101367)
(-6.04635e-06 -1.00223e-05 0.0101381)
(-9.54243e-06 -9.54246e-06 0.0101408)
(-1.22105e-05 -8.7976e-06 0.0101449)
(-1.42098e-05 -7.8113e-06 0.01015)
(1.33141e-05 -1.01139e-05 0.010153)
(1.12457e-05 -1.12462e-05 0.0101485)
(8.79756e-06 -1.22111e-05 0.0101449)
(5.57947e-06 -1.28507e-05 0.0101424)
(1.91028e-06 -1.31682e-05 0.0101411)
(-1.91034e-06 -1.31681e-05 0.0101411)
(-5.57949e-06 -1.28504e-05 0.0101424)
(-8.79757e-06 -1.22106e-05 0.0101449)
(-1.12457e-05 -1.12456e-05 0.0101485)
(-1.33141e-05 -1.01135e-05 0.010153)
(1.33135e-05 -1.33144e-05 0.0101568)
(1.01133e-05 -1.33145e-05 0.010153)
(7.81134e-06 -1.42103e-05 0.01015)
(4.91763e-06 -1.46642e-05 0.0101479)
(1.67824e-06 -1.48828e-05 0.0101468)
(-1.67796e-06 -1.48827e-05 0.0101468)
(-4.91735e-06 -1.46639e-05 0.0101479)
(-7.81107e-06 -1.42099e-05 0.01015)
(-1.01134e-05 -1.33141e-05 0.010153)
(-1.33139e-05 -1.3314e-05 0.0101568)
(4.52601e-06 4.52594e-06 0.0101578)
(3.53459e-06 4.71019e-06 0.0101564)
(2.78569e-06 5.16064e-06 0.0101553)
(1.77751e-06 5.42515e-06 0.0101545)
(6.10725e-07 5.55822e-06 0.0101541)
(-6.10505e-07 5.55809e-06 0.0101541)
(-1.77715e-06 5.42484e-06 0.0101545)
(-2.7853e-06 5.16014e-06 0.0101553)
(-3.53474e-06 4.7098e-06 0.0101564)
(-4.52646e-06 4.52556e-06 0.0101578)
(4.71021e-06 3.53456e-06 0.0101564)
(4.10553e-06 4.10558e-06 0.0101547)
(3.29216e-06 4.6082e-06 0.0101533)
(2.12259e-06 4.95727e-06 0.0101523)
(7.32732e-07 5.13581e-06 0.0101517)
(-7.32791e-07 5.13571e-06 0.0101517)
(-2.12266e-06 4.95703e-06 0.0101523)
(-3.29225e-06 4.60766e-06 0.0101533)
(-4.10543e-06 4.10486e-06 0.0101547)
(-4.71005e-06 3.53413e-06 0.0101564)
(5.1607e-06 2.78558e-06 0.0101553)
(4.60823e-06 3.29216e-06 0.0101533)
(3.70411e-06 3.70413e-06 0.0101516)
(2.39086e-06 3.98664e-06 0.0101503)
(8.2557e-07 4.12996e-06 0.0101497)
(-8.25712e-07 4.12993e-06 0.0101497)
(-2.39098e-06 3.98652e-06 0.0101503)
(-3.70419e-06 3.70399e-06 0.0101516)
(-4.60823e-06 3.29207e-06 0.0101533)
(-5.16056e-06 2.78539e-06 0.0101553)
(5.42519e-06 1.77749e-06 0.0101545)
(4.95735e-06 2.12254e-06 0.0101523)
(3.98664e-06 2.39084e-06 0.0101503)
(2.57471e-06 2.5747e-06 0.010149)
(8.89188e-07 2.66789e-06 0.0101483)
(-8.89399e-07 2.66787e-06 0.0101483)
(-2.57488e-06 2.57463e-06 0.010149)
(-3.98673e-06 2.39074e-06 0.0101503)
(-4.95737e-06 2.12242e-06 0.0101523)
(-5.42507e-06 1.77735e-06 0.0101545)
(5.55822e-06 6.10784e-07 0.0101541)
(5.13584e-06 7.3269e-07 0.0101517)
(4.12999e-06 8.25541e-07 0.0101497)
(2.66791e-06 8.89169e-07 0.0101483)
(9.21418e-07 9.21399e-07 0.0101475)
(-9.2165e-07 9.21391e-07 0.0101475)
(-2.66811e-06 8.89144e-07 0.0101483)
(-4.13012e-06 8.25509e-07 0.0101497)
(-5.13586e-06 7.3268e-07 0.0101517)
(-5.55807e-06 6.10766e-07 0.0101541)
(5.55809e-06 -6.1048e-07 0.0101541)
(5.13571e-06 -7.32819e-07 0.0101517)
(4.12995e-06 -8.25715e-07 0.0101497)
(2.66789e-06 -8.89406e-07 0.0101483)
(9.21409e-07 -9.21674e-07 0.0101475)
(-9.21653e-07 -9.21669e-07 0.0101475)
(-2.66808e-06 -8.89402e-07 0.0101483)
(-4.13003e-06 -8.25688e-07 0.0101497)
(-5.13571e-06 -7.32727e-07 0.0101517)
(-5.55796e-06 -6.10367e-07 0.0101541)
(5.42479e-06 -1.77724e-06 0.0101545)
(4.95704e-06 -2.12269e-06 0.0101523)
(3.98656e-06 -2.39095e-06 0.0101503)
(2.57463e-06 -2.57488e-06 0.010149)
(8.89154e-07 -2.66812e-06 0.0101483)
(-8.89377e-07 -2.6681e-06 0.0101483)
(-2.5748e-06 -2.57482e-06 0.010149)
(-3.98661e-06 -2.39087e-06 0.0101503)
(-4.95697e-06 -2.12255e-06 0.0101523)
(-5.42472e-06 -1.777e-06 0.0101545)
(5.16005e-06 -2.78527e-06 0.0101553)
(4.60777e-06 -3.29225e-06 0.0101533)
(3.70405e-06 -3.7042e-06 0.0101516)
(2.39072e-06 -3.98676e-06 0.0101503)
(8.25511e-07 -4.13011e-06 0.0101497)
(-8.25673e-07 -4.13007e-06 0.0101497)
(-2.39085e-06 -3.98665e-06 0.0101503)
(-3.70406e-06 -3.70408e-06 0.0101516)
(-4.60763e-06 -3.2921e-06 0.0101533)
(-5.15998e-06 -2.78509e-06 0.0101553)
(4.70963e-06 -3.53446e-06 0.0101564)
(4.10481e-06 -4.10516e-06 0.0101547)
(3.29208e-06 -4.60821e-06 0.0101533)
(2.12244e-06 -4.95739e-06 0.0101523)
(7.32677e-07 -5.13586e-06 0.0101517)
(-7.32755e-07 -5.13576e-06 0.0101517)
(-2.12252e-06 -4.95704e-06 0.0101523)
(-3.29206e-06 -4.60769e-06 0.0101533)
(-4.10464e-06 -4.10464e-06 0.0101547)
(-4.70953e-06 -3.53425e-06 0.0101564)
(4.52568e-06 -4.52648e-06 0.0101578)
(3.53402e-06 -4.71001e-06 0.0101564)
(2.78513e-06 -5.1604e-06 0.0101553)
(1.77729e-06 -5.42498e-06 0.0101545)
(6.10741e-07 -5.55805e-06 0.0101541)
(-6.10418e-07 -5.55795e-06 0.0101541)
(-1.777e-06 -5.42469e-06 0.0101545)
(-2.78499e-06 -5.15999e-06 0.0101553)
(-3.53419e-06 -4.70957e-06 0.0101564)
(-4.52598e-06 -4.52608e-06 0.0101578)
(1.55955e-06 1.55951e-06 0.0101577)
(1.23495e-06 1.66057e-06 0.0101572)
(9.83367e-07 1.84835e-06 0.0101568)
(6.31987e-07 1.96473e-06 0.0101565)
(2.17962e-07 2.02436e-06 0.0101564)
(-2.17751e-07 2.02424e-06 0.0101564)
(-6.31672e-07 1.96442e-06 0.0101565)
(-9.83052e-07 1.84784e-06 0.0101568)
(-1.23486e-06 1.65986e-06 0.0101572)
(-1.55985e-06 1.55912e-06 0.0101577)
(1.66061e-06 1.23491e-06 0.0101572)
(1.47276e-06 1.47272e-06 0.0101566)
(1.1971e-06 1.68663e-06 0.010156)
(7.78985e-07 1.83895e-06 0.0101557)
(2.70148e-07 1.91802e-06 0.0101554)
(-2.70231e-07 1.91795e-06 0.0101554)
(-7.79096e-07 1.8387e-06 0.0101557)
(-1.19731e-06 1.68619e-06 0.010156)
(-1.47253e-06 1.47208e-06 0.0101566)
(-1.66028e-06 1.23438e-06 0.0101572)
(1.8484e-06 9.83374e-07 0.0101568)
(1.68668e-06 1.19708e-06 0.010156)
(1.37791e-06 1.3779e-06 0.0101554)
(8.99196e-07 1.50598e-06 0.0101549)
(3.122e-07 1.57227e-06 0.0101546)
(-3.12327e-07 1.57226e-06 0.0101546)
(-8.99301e-07 1.50592e-06 0.0101549)
(-1.37799e-06 1.37787e-06 0.0101554)
(-1.68668e-06 1.19718e-06 0.010156)
(-1.8482e-06 9.83103e-07 0.0101568)
(1.96476e-06 6.31983e-07 0.0101565)
(1.83897e-06 7.78935e-07 0.0101557)
(1.506e-06 8.99172e-07 0.0101549)
(9.84651e-07 9.8463e-07 0.0101543)
(3.42144e-07 1.02892e-06 0.010154)
(-3.42305e-07 1.02891e-06 0.010154)
(-9.84784e-07 9.84587e-07 0.0101543)
(-1.50608e-06 8.99101e-07 0.0101549)
(-1.83903e-06 7.78847e-07 0.0101557)
(-1.96467e-06 6.31828e-07 0.0101565)
(2.02435e-06 2.17973e-07 0.0101564)
(1.91804e-06 2.70123e-07 0.0101554)
(1.57231e-06 3.12185e-07 0.0101546)
(1.02894e-06 3.42126e-07 0.010154)
(3.57669e-07 3.57649e-07 0.0101537)
(-3.57847e-07 3.57637e-07 0.0101537)
(-1.0291e-06 3.421e-07 0.010154)
(-1.57242e-06 3.12146e-07 0.0101546)
(-1.91809e-06 2.70099e-07 0.0101554)
(-2.02421e-06 2.17987e-07 0.0101564)
(2.02422e-06 -2.1771e-07 0.0101564)
(1.91795e-06 -2.70243e-07 0.0101554)
(1.57228e-06 -3.12338e-07 0.0101546)
(1.02892e-06 -3.42315e-07 0.010154)
(3.57655e-07 -3.57867e-07 0.0101537)
(-3.57853e-07 -3.57875e-07 0.0101537)
(-1.02908e-06 -3.42322e-07 0.010154)
(-1.57236e-06 -3.12307e-07 0.0101546)
(-1.91795e-06 -2.70146e-07 0.0101554)
(-2.02411e-06 -2.17607e-07 0.0101564)
(1.96438e-06 -6.31658e-07 0.0101565)
(1.83867e-06 -7.79087e-07 0.0101557)
(1.50596e-06 -8.99291e-07 0.0101549)
(9.846e-07 -9.84786e-07 0.0101543)
(3.42108e-07 -1.02911e-06 0.010154)
(-3.42302e-07 -1.0291e-06 0.010154)
(-9.84726e-07 -9.8475e-07 0.0101543)
(-1.50597e-06 -8.99182e-07 0.0101549)
(-1.83866e-06 -7.78897e-07 0.0101557)
(-1.9643e-06 -6.31519e-07 0.0101565)
(1.84777e-06 -9.83001e-07 0.0101568)
(1.68618e-06 -1.19722e-06 0.010156)
(1.37788e-06 -1.37796e-06 0.0101554)
(8.99098e-07 -1.5061e-06 0.0101549)
(3.12148e-07 -1.57241e-06 0.0101546)
(-3.12301e-07 -1.57238e-06 0.0101546)
(-8.99164e-07 -1.50599e-06 0.0101549)
(-1.37781e-06 -1.37783e-06 0.0101554)
(-1.68616e-06 -1.19708e-06 0.010156)
(-1.84772e-06 -9.82843e-07 0.0101568)
(1.65985e-06 -1.23476e-06 0.0101572)
(1.47201e-06 -1.47235e-06 0.0101566)
(1.19711e-06 -1.68661e-06 0.010156)
(7.78844e-07 -1.83901e-06 0.0101557)
(2.70104e-07 -1.91808e-06 0.0101554)
(-2.70161e-07 -1.91796e-06 0.0101554)
(-7.78872e-07 -1.83867e-06 0.0101557)
(-1.19705e-06 -1.68621e-06 0.010156)
(-1.47195e-06 -1.47202e-06 0.0101566)
(-1.65987e-06 -1.23445e-06 0.0101572)
(1.55913e-06 -1.55991e-06 0.0101577)
(1.23434e-06 -1.66023e-06 0.0101572)
(9.8295e-07 -1.84814e-06 0.0101568)
(6.31771e-07 -1.96458e-06 0.0101565)
(2.17962e-07 -2.02419e-06 0.0101564)
(-2.17636e-07 -2.02409e-06 0.0101564)
(-6.31539e-07 -1.96432e-06 0.0101565)
(-9.82891e-07 -1.84776e-06 0.0101568)
(-1.23441e-06 -1.65992e-06 0.0101572)
(-1.5595e-06 -1.55952e-06 0.0101577)
(5.43545e-07 5.43418e-07 0.0101575)
(4.33237e-07 5.86317e-07 0.0101574)
(3.46744e-07 6.58916e-07 0.0101573)
(2.23622e-07 7.0502e-07 0.0101572)
(7.7268e-08 7.28854e-07 0.0101571)
(-7.71032e-08 7.28734e-07 0.0101571)
(-2.23346e-07 7.0471e-07 0.0101572)
(-3.46412e-07 6.58436e-07 0.0101573)
(-4.33205e-07 5.85947e-07 0.0101574)
(-5.43915e-07 5.43286e-07 0.0101575)
(5.86379e-07 4.33213e-07 0.0101574)
(5.24939e-07 5.24899e-07 0.0101572)
(4.29726e-07 6.08432e-07 0.010157)
(2.8103e-07 6.68787e-07 0.0101568)
(9.76716e-08 7.00401e-07 0.0101568)
(-9.77807e-08 7.00346e-07 0.0101568)
(-2.81087e-07 6.68594e-07 0.0101568)
(-4.29747e-07 6.08088e-07 0.010157)
(-5.24687e-07 5.244e-07 0.0101572)
(-5.86238e-07 4.32832e-07 0.0101574)
(6.58864e-07 3.46703e-07 0.0101573)
(6.08462e-07 4.29692e-07 0.010157)
(5.01625e-07 5.01588e-07 0.0101567)
(3.29414e-07 5.53469e-07 0.0101565)
(1.14715e-07 5.80647e-07 0.0101564)
(-1.14814e-07 5.80651e-07 0.0101564)
(-3.29457e-07 5.53458e-07 0.0101565)
(-5.01608e-07 5.01558e-07 0.0101567)
(-6.08461e-07 4.29667e-07 0.010157)
(-6.58853e-07 3.46378e-07 0.0101573)
(7.05002e-07 2.23607e-07 0.0101572)
(6.68821e-07 2.81033e-07 0.0101568)
(5.53504e-07 3.29406e-07 0.0101565)
(3.64525e-07 3.64506e-07 0.0101563)
(1.27118e-07 3.82946e-07 0.0101562)
(-1.2723e-07 3.82936e-07 0.0101562)
(-3.64618e-07 3.64465e-07 0.0101563)
(-5.53562e-07 3.29304e-07 0.0101565)
(-6.68908e-07 2.80875e-07 0.0101568)
(-7.04965e-07 2.23436e-07 0.0101572)
(7.28852e-07 7.7297e-08 0.0101571)
(7.00436e-07 9.76823e-08 0.0101568)
(5.80664e-07 1.14702e-07 0.0101564)
(3.82955e-07 1.27096e-07 0.0101562)
(1.33624e-07 1.33609e-07 0.0101561)
(-1.33772e-07 1.33588e-07 0.0101561)
(-3.83085e-07 1.27054e-07 0.0101562)
(-5.80757e-07 1.1465e-07 0.0101564)
(-7.0048e-07 9.76446e-08 0.0101568)
(-7.28739e-07 7.73421e-08 0.0101571)
(7.28714e-07 -7.7081e-08 0.0101571)
(7.00341e-07 -9.78015e-08 0.0101568)
(5.80654e-07 -1.14844e-07 0.0101564)
(3.82952e-07 -1.27247e-07 0.0101562)
(1.3361e-07 -1.33782e-07 0.0101561)
(-1.33784e-07 -1.33796e-07 0.0101561)
(-3.83075e-07 -1.27264e-07 0.0101562)
(-5.80707e-07 -1.14807e-07 0.0101564)
(-7.00334e-07 -9.76907e-08 0.0101568)
(-7.28624e-07 -7.69525e-08 0.0101571)
(7.04653e-07 -2.23351e-07 0.0101572)
(6.68578e-07 -2.81094e-07 0.0101568)
(5.53477e-07 -3.29452e-07 0.0101565)
(3.64492e-07 -3.64611e-07 0.0101563)
(1.27074e-07 -3.83087e-07 0.0101562)
(-1.27253e-07 -3.83078e-07 0.0101562)
(-3.64574e-07 -3.64578e-07 0.0101563)
(-5.53447e-07 -3.29364e-07 0.0101565)
(-6.68537e-07 -2.80949e-07 0.0101568)
(-7.04613e-07 -2.23195e-07 0.0101572)
(6.58348e-07 -3.46329e-07 0.0101573)
(6.08094e-07 -4.29727e-07 0.010157)
(5.01574e-07 -5.01578e-07 0.0101567)
(3.29313e-07 -5.53552e-07 0.0101565)
(1.14663e-07 -5.8075e-07 0.0101564)
(-1.14798e-07 -5.80704e-07 0.0101564)
(-3.29361e-07 -5.53445e-07 0.0101565)
(-5.01524e-07 -5.01516e-07 0.0101567)
(-6.08036e-07 -4.29712e-07 0.010157)
(-6.58322e-07 -3.46239e-07 0.0101573)
(5.85824e-07 -4.33014e-07 0.0101574)
(5.24335e-07 -5.2462e-07 0.0101572)
(4.29675e-07 -6.0842e-07 0.010157)
(2.80877e-07 -6.68856e-07 0.0101568)
(9.76571e-08 -7.00449e-07 0.0101568)
(-9.76856e-08 -7.00327e-07 0.0101568)
(-2.80938e-07 -6.6853e-07 0.0101568)
(-4.29713e-07 -6.08035e-07 0.010157)
(-5.24222e-07 -5.24233e-07 0.0101572)
(-5.85684e-07 -4.32807e-07 0.0101574)
(5.43222e-07 -5.43857e-07 0.0101575)
(4.32696e-07 -5.86119e-07 0.0101574)
(3.46383e-07 -6.58748e-07 0.0101573)
(2.23431e-07 -7.04887e-07 0.0101572)
(7.73077e-08 -7.28704e-07 0.0101571)
(-7.69683e-08 -7.28614e-07 0.0101571)
(-2.23199e-07 -7.04618e-07 0.0101572)
(-3.46275e-07 -6.58372e-07 0.0101573)
(-4.32815e-07 -5.85721e-07 0.0101574)
(-5.43548e-07 -5.43545e-07 0.0101575)
(1.90978e-07 1.90845e-07 0.0101575)
(1.5278e-07 2.07631e-07 0.0101574)
(1.22633e-07 2.34643e-07 0.0101574)
(7.91256e-08 2.5199e-07 0.0101574)
(2.73418e-08 2.61023e-07 0.0101573)
(-2.72475e-08 2.60911e-07 0.0101573)
(-7.88891e-08 2.51666e-07 0.0101574)
(-1.22194e-07 2.34127e-07 0.0101574)
(-1.52658e-07 2.07259e-07 0.0101574)
(-1.91324e-07 1.90858e-07 0.0101575)
(2.07677e-07 1.5269e-07 0.0101574)
(1.86917e-07 1.86848e-07 0.0101574)
(1.53404e-07 2.17954e-07 0.0101573)
(1.00581e-07 2.40719e-07 0.0101572)
(3.49848e-08 2.52741e-07 0.0101572)
(-3.50956e-08 2.52701e-07 0.0101572)
(-1.0066e-07 2.40587e-07 0.0101572)
(-1.53405e-07 2.17684e-07 0.0101573)
(-1.86508e-07 1.86314e-07 0.0101574)
(-2.07466e-07 1.52334e-07 0.0101574)
(2.34631e-07 1.22581e-07 0.0101574)
(2.18041e-07 1.53381e-07 0.0101573)
(1.80603e-07 1.80563e-07 0.0101572)
(1.19034e-07 2.00405e-07 0.0101571)
(4.15084e-08 2.10871e-07 0.0101571)
(-4.16e-08 2.10875e-07 0.0101571)
(-1.19056e-07 2.00414e-07 0.0101571)
(-1.80567e-07 1.80575e-07 0.0101572)
(-2.18004e-07 1.5337e-07 0.0101573)
(-2.34617e-07 1.22188e-07 0.0101574)
(2.52009e-07 7.91768e-08 0.0101574)
(2.40795e-07 1.00602e-07 0.0101572)
(2.00433e-07 1.19013e-07 0.0101571)
(1.32554e-07 1.32526e-07 0.0101571)
(4.6309e-08 1.39682e-07 0.010157)
(-4.64017e-08 1.3968e-07 0.010157)
(-1.32623e-07 1.32502e-07 0.0101571)
(-2.00471e-07 1.18923e-07 0.0101571)
(-2.40845e-07 1.00449e-07 0.0101572)
(-2.51965e-07 7.89872e-08 0.0101574)
(2.61046e-07 2.74087e-08 0.0101573)
(2.52759e-07 3.49897e-08 0.0101572)
(2.10867e-07 4.14922e-08 0.0101571)
(1.39702e-07 4.62869e-08 0.010157)
(4.88449e-08 4.882e-08 0.010157)
(-4.89594e-08 4.88066e-08 0.010157)
(-1.39808e-07 4.62523e-08 0.010157)
(-2.1095e-07 4.14491e-08 0.0101571)
(-2.52796e-07 3.49538e-08 0.0101572)
(-2.60934e-07 2.74302e-08 0.0101573)
(2.60907e-07 -2.72413e-08 0.0101573)
(2.52696e-07 -3.508e-08 0.0101572)
(2.10876e-07 -4.15802e-08 0.0101571)
(1.39699e-07 -4.6396e-08 0.010157)
(4.88284e-08 -4.89634e-08 0.010157)
(-4.89685e-08 -4.89719e-08 0.010157)
(-1.39796e-07 -4.64118e-08 0.010157)
(-2.10915e-07 -4.15675e-08 0.0101571)
(-2.52684e-07 -3.50064e-08 0.0101572)
(-2.60821e-07 -2.71065e-08 0.0101573)
(2.5169e-07 -7.88592e-08 0.0101574)
(2.40615e-07 -1.00603e-07 0.0101572)
(2.004e-07 -1.19031e-07 0.0101571)
(1.32499e-07 -1.32616e-07 0.0101571)
(4.62684e-08 -1.39798e-07 0.010157)
(-4.64076e-08 -1.39786e-07 0.010157)
(-1.32584e-07 -1.32575e-07 0.0101571)
(-2.00396e-07 -1.18965e-07 0.0101571)
(-2.40538e-07 -1.00492e-07 0.0101572)
(-2.51653e-07 -7.87302e-08 0.0101574)
(2.34126e-07 -1.22078e-07 0.0101574)
(2.17679e-07 -1.53424e-07 0.0101573)
(1.80529e-07 -1.8061e-07 0.0101572)
(1.18929e-07 -2.00475e-07 0.0101571)
(4.14761e-08 -2.10936e-07 0.0101571)
(-4.15642e-08 -2.10904e-07 0.0101571)
(-1.18975e-07 -2.00386e-07 0.0101571)
(-1.80504e-07 -1.8049e-07 0.0101572)
(-2.17607e-07 -1.533e-07 0.0101573)
(-2.34163e-07 -1.2205e-07 0.0101574)
(2.07053e-07 -1.52502e-07 0.0101574)
(1.86209e-07 -1.86662e-07 0.0101574)
(1.53367e-07 -2.17977e-07 0.0101573)
(1.00505e-07 -2.40767e-07 0.0101572)
(3.49867e-08 -2.52762e-07 0.0101572)
(-3.5006e-08 -2.52668e-07 0.0101572)
(-1.00497e-07 -2.40521e-07 0.0101572)
(-1.5331e-07 -2.17595e-07 0.0101573)
(-1.86161e-07 -1.86187e-07 0.0101574)
(-2.07147e-07 -1.52453e-07 0.0101574)
(1.90458e-07 -1.91295e-07 0.0101575)
(1.52204e-07 -2.07332e-07 0.0101574)
(1.22375e-07 -2.34432e-07 0.0101574)
(7.89961e-08 -2.51855e-07 0.0101574)
(2.73909e-08 -2.60899e-07 0.0101573)
(-2.71218e-08 -2.60808e-07 0.0101573)
(-7.87449e-08 -2.51626e-07 0.0101574)
(-1.22119e-07 -2.34179e-07 0.0101574)
(-1.52465e-07 -2.07155e-07 0.0101574)
(-1.91014e-07 -1.91088e-07 0.0101575)
(6.74962e-08 6.73159e-08 0.0101575)
(5.39315e-08 7.36681e-08 0.0101575)
(4.33898e-08 8.35654e-08 0.0101574)
(2.80838e-08 8.99805e-08 0.0101574)
(9.72995e-09 9.32599e-08 0.0101574)
(-9.60736e-09 9.31644e-08 0.0101574)
(-2.78653e-08 8.97115e-08 0.0101574)
(-4.31307e-08 8.31993e-08 0.0101574)
(-5.3856e-08 7.33631e-08 0.0101575)
(-6.77042e-08 6.71893e-08 0.0101575)
(7.36779e-08 5.3934e-08 0.0101575)
(6.65109e-08 6.64768e-08 0.0101574)
(5.46862e-08 7.79227e-08 0.0101574)
(3.58878e-08 8.62669e-08 0.0101574)
(1.24664e-08 9.06675e-08 0.0101574)
(-1.25239e-08 9.06343e-08 0.0101574)
(-3.5875e-08 8.61525e-08 0.0101574)
(-5.4635e-08 7.7702e-08 0.0101574)
(-6.63802e-08 6.61654e-08 0.0101574)
(-7.36217e-08 5.3636e-08 0.0101575)
(8.35357e-08 4.34221e-08 0.0101574)
(7.7917e-08 5.46642e-08 0.0101574)
(6.4676e-08 6.46549e-08 0.0101574)
(4.26865e-08 7.19802e-08 0.0101573)
(1.48906e-08 7.58841e-08 0.0101573)
(-1.49238e-08 7.58939e-08 0.0101573)
(-4.26776e-08 7.19905e-08 0.0101573)
(-6.46366e-08 6.46178e-08 0.0101574)
(-7.79344e-08 5.46093e-08 0.0101574)
(-8.35778e-08 4.3234e-08 0.0101574)
(8.9937e-08 2.8075e-08 0.0101574)
(8.62466e-08 3.58755e-08 0.0101574)
(7.19992e-08 4.26651e-08 0.0101573)
(4.77227e-08 4.76968e-08 0.0101573)
(1.66939e-08 5.03862e-08 0.0101573)
(-1.67269e-08 5.03828e-08 0.0101573)
(-4.77581e-08 4.76769e-08 0.0101573)
(-7.2032e-08 4.26001e-08 0.0101573)
(-8.62986e-08 3.57672e-08 0.0101574)
(-8.9913e-08 2.79765e-08 0.0101574)
(9.32505e-08 9.71163e-09 0.0101574)
(9.0647e-08 1.24531e-08 0.0101574)
(7.58893e-08 1.48717e-08 0.0101573)
(5.04073e-08 1.66725e-08 0.0101573)
(1.76437e-08 1.76243e-08 0.0101573)
(-1.76987e-08 1.76118e-08 0.0101573)
(-5.04571e-08 1.66448e-08 0.0101573)
(-7.59347e-08 1.48504e-08 0.0101573)
(-9.06854e-08 1.24498e-08 0.0101574)
(-9.31826e-08 9.77295e-09 0.0101574)
(9.31227e-08 -9.61215e-09 0.0101574)
(9.06132e-08 -1.25487e-08 0.0101574)
(7.59043e-08 -1.49446e-08 0.0101573)
(5.04079e-08 -1.67429e-08 0.0101573)
(1.76331e-08 -1.77076e-08 0.0101573)
(-1.77058e-08 -1.77138e-08 0.0101573)
(-5.04513e-08 -1.67493e-08 0.0101573)
(-7.59137e-08 -1.49288e-08 0.0101573)
(-9.05884e-08 -1.24896e-08 0.0101574)
(-9.30857e-08 -9.51479e-09 0.0101574)
(8.96211e-08 -2.78244e-08 0.0101574)
(8.61166e-08 -3.58898e-08 0.0101574)
(7.20037e-08 -4.26779e-08 0.0101573)
(4.77094e-08 -4.77512e-08 0.0101573)
(1.66722e-08 -5.04474e-08 0.0101573)
(-1.67402e-08 -5.04409e-08 0.0101573)
(-4.77379e-08 -4.77258e-08 0.0101573)
(-7.19856e-08 -4.26219e-08 0.0101573)
(-8.60772e-08 -3.57903e-08 0.0101574)
(-8.96489e-08 -2.77817e-08 0.0101574)
(8.31062e-08 -4.30823e-08 0.0101574)
(7.76435e-08 -5.46045e-08 0.0101574)
(6.46488e-08 -6.45881e-08 0.0101574)
(4.2634e-08 -7.19862e-08 0.0101573)
(1.48749e-08 -7.59066e-08 0.0101573)
(-1.49174e-08 -7.58854e-08 0.0101573)
(-4.2631e-08 -7.19527e-08 0.0101573)
(-6.45911e-08 -6.45582e-08 0.0101574)
(-7.76332e-08 -5.4569e-08 0.0101574)
(-8.32043e-08 -4.31228e-08 0.0101574)
(7.33405e-08 -5.38633e-08 0.0101575)
(6.61182e-08 -6.62077e-08 0.0101574)
(5.46322e-08 -7.7768e-08 0.0101574)
(3.57748e-08 -8.62077e-08 0.0101574)
(1.24585e-08 -9.06405e-08 0.0101574)
(-1.24745e-08 -9.05647e-08 0.0101574)
(-3.57952e-08 -8.60512e-08 0.0101574)
(-5.45998e-08 -7.75885e-08 0.0101574)
(-6.61172e-08 -6.60553e-08 0.0101574)
(-7.32837e-08 -5.37492e-08 0.0101575)
(6.72888e-08 -6.76612e-08 0.0101575)
(5.37504e-08 -7.35036e-08 0.0101575)
(4.319e-08 -8.3475e-08 0.0101574)