/*--------------------------------*- C++ -*----------------------------------*\
| =========                 |                                                 |
| \\      /  F ield         | OpenFOAM: The Open Source CFD Toolbox           |
|  \\    /   O peration     | Version:  2412                                  |
|   \\  /    A nd           | Website:  www.openfoam.com                      |
|    \\/     M anipulation  |                                                 |
\*---------------------------------------------------------------------------*/
FoamFile
{
    version     2.0;
    format      ascii;
    arch        "LSB;label=32;scalar=64";
    class       surfaceScalarField;
    location    "0.6";
    object      phi;
}
// * * * * * * * * * * * * * * * * * * * * * * * * * * * * * * * * * * * * * //

dimensions      [0 3 -1 0 0 0 0];

oriented        oriented;

internalField   nonuniform List<scalar> 
43700
(
3.50554e-05
3.50554e-05
5.67904e-05
-3.99497e-05
-3.99497e-05
2.79896e-05
3.49061e-05
6.361e-05
-4.0512e-05
1.93664e-05
3.43001e-05
6.84081e-05
-4.01419e-05
9.87197e-06
3.37123e-05
7.14682e-05
-3.97149e-05
2.88646e-12
3.33716e-05
7.29485e-05
-3.94552e-05
-9.87196e-06
3.33716e-05
7.29485e-05
-3.94552e-05
-1.93663e-05
3.37124e-05
7.14682e-05
-3.97149e-05
-2.79896e-05
3.43001e-05
6.84081e-05
-4.01419e-05
-3.50554e-05
3.49061e-05
6.361e-05
-4.0512e-05
3.50554e-05
5.67904e-05
-3.99497e-05
-3.99497e-05
3.49061e-05
2.79896e-05
6.361e-05
-4.0512e-05
2.72463e-05
2.72463e-05
6.99039e-05
1.8527e-05
2.64289e-05
7.39595e-05
9.34111e-06
2.57681e-05
7.63798e-05
5.8299e-12
2.54048e-05
7.75051e-05
-9.3411e-06
2.54048e-05
7.75051e-05
-1.8527e-05
2.57681e-05
7.63798e-05
-2.72463e-05
2.64289e-05
7.39595e-05
-3.49061e-05
2.72463e-05
6.99039e-05
2.79896e-05
6.361e-05
-4.0512e-05
3.43001e-05
1.93664e-05
6.84081e-05
-4.01419e-05
2.64289e-05
1.8527e-05
7.39595e-05
1.77621e-05
1.77621e-05
7.7321e-05
8.88608e-06
1.71912e-05
7.92091e-05
3.95873e-12
1.68879e-05
8.00508e-05
-8.88607e-06
1.68879e-05
8.00508e-05
-1.77621e-05
1.71912e-05
7.92091e-05
-2.64289e-05
1.77621e-05
7.7321e-05
-3.43001e-05
1.8527e-05
7.39595e-05
1.93663e-05
6.84081e-05
-4.01419e-05
3.37124e-05
9.87197e-06
7.14682e-05
-3.97149e-05
2.57681e-05
9.3411e-06
7.63798e-05
1.71912e-05
8.88608e-06
7.92091e-05
8.55751e-06
8.55752e-06
8.07177e-05
-1.45396e-13
8.38584e-06
8.13638e-05
-8.55751e-06
8.38583e-06
8.13638e-05
-1.71912e-05
8.55751e-06
8.07177e-05
-2.57681e-05
8.88607e-06
7.92091e-05
-3.37124e-05
9.3411e-06
7.63798e-05
9.87197e-06
7.14682e-05
-3.97149e-05
3.33716e-05
2.53938e-12
7.29485e-05
-3.94552e-05
2.54048e-05
3.13303e-12
7.75051e-05
1.68879e-05
1.12201e-12
8.00508e-05
8.38583e-06
5.18972e-13
8.13638e-05
-4.74616e-12
4.06332e-12
8.19109e-05
-8.38583e-06
5.88126e-12
8.19109e-05
-1.68879e-05
1.61468e-12
8.13638e-05
-2.54048e-05
-5.34164e-12
8.00508e-05
-3.33716e-05
-8.83541e-12
7.75051e-05
-5.81733e-12
7.29484e-05
-3.94552e-05
3.33716e-05
-9.87197e-06
7.29485e-05
-3.94552e-05
2.54048e-05
-9.3411e-06
7.75051e-05
1.68879e-05
-8.88607e-06
8.00508e-05
8.38584e-06
-8.55752e-06
8.13638e-05
-2.83127e-12
-8.38583e-06
8.19109e-05
-8.38584e-06
-8.38583e-06
8.19109e-05
-1.68879e-05
-8.55751e-06
8.13638e-05
-2.54048e-05
-8.88607e-06
8.00508e-05
-3.33716e-05
-9.3411e-06
7.75051e-05
-9.87197e-06
7.29485e-05
-3.94552e-05
3.37124e-05
-1.93664e-05
7.14682e-05
-3.97149e-05
2.57681e-05
-1.8527e-05
7.63798e-05
1.71912e-05
-1.77621e-05
7.92091e-05
8.55752e-06
-1.71912e-05
8.07177e-05
1.82268e-12
-1.68879e-05
8.13638e-05
-8.55752e-06
-1.68879e-05
8.13638e-05
-1.71912e-05
-1.71912e-05
8.07177e-05
-2.57681e-05
-1.77621e-05
7.92091e-05
-3.37123e-05
-1.8527e-05
7.63798e-05
-1.93664e-05
7.14682e-05
-3.97149e-05
3.43001e-05
-2.79896e-05
6.84081e-05
-4.01419e-05
2.64289e-05
-2.72463e-05
7.39595e-05
1.77621e-05
-2.64289e-05
7.7321e-05
8.88607e-06
-2.57681e-05
7.92091e-05
2.03167e-12
-2.54048e-05
8.00508e-05
-8.88607e-06
-2.54048e-05
8.00508e-05
-1.77621e-05
-2.57681e-05
7.92091e-05
-2.64289e-05
-2.64289e-05
7.7321e-05
-3.43001e-05
-2.72463e-05
7.39595e-05
-2.79896e-05
6.84081e-05
-4.01419e-05
3.49061e-05
-3.50554e-05
6.361e-05
-4.0512e-05
2.72463e-05
-3.49061e-05
6.99039e-05
1.8527e-05
-3.43001e-05
7.39595e-05
9.3411e-06
-3.37124e-05
7.63798e-05
-1.26199e-12
-3.33716e-05
7.75051e-05
-9.3411e-06
-3.33716e-05
7.75051e-05
-1.8527e-05
-3.37123e-05
7.63798e-05
-2.72463e-05
-3.43001e-05
7.39595e-05
-3.49061e-05
-3.49061e-05
6.99039e-05
-3.50554e-05
6.361e-05
-4.0512e-05
3.50554e-05
5.67904e-05
-3.99497e-05
-3.99497e-05
2.79896e-05
6.361e-05
-4.0512e-05
1.93664e-05
6.84081e-05
-4.01419e-05
9.87197e-06
7.14682e-05
-3.97149e-05
-1.25095e-12
7.29485e-05
-3.94552e-05
-9.87197e-06
7.29485e-05
-3.94552e-05
-1.93664e-05
7.14682e-05
-3.97149e-05
-2.79896e-05
6.84081e-05
-4.01419e-05
-3.50554e-05
6.361e-05
-4.0512e-05
5.67904e-05
-3.99497e-05
-3.99497e-05
1.98762e-05
1.98762e-05
5.71029e-05
-2.00325e-05
-2.00325e-05
1.73632e-05
2.21649e-05
6.61817e-05
-2.22236e-05
1.27974e-05
2.37475e-05
7.30466e-05
-2.38201e-05
6.7753e-06
2.47451e-05
7.76043e-05
-2.48591e-05
1.65263e-12
2.52218e-05
7.98656e-05
-2.53637e-05
-6.77529e-06
2.52218e-05
7.98656e-05
-2.53637e-05
-1.27974e-05
2.47451e-05
7.76043e-05
-2.48591e-05
-1.73632e-05
2.37475e-05
7.30466e-05
-2.38201e-05
-1.98762e-05
2.21649e-05
6.61817e-05
-2.22236e-05
1.98762e-05
5.71029e-05
-2.00325e-05
-2.00325e-05
2.21649e-05
1.73632e-05
6.61817e-05
-2.22236e-05
1.92434e-05
1.92434e-05
7.57469e-05
1.40668e-05
2.05089e-05
8.23748e-05
7.40169e-06
2.12803e-05
8.65096e-05
4.0381e-13
2.16425e-05
8.84861e-05
-7.40169e-06
2.16425e-05
8.84861e-05
-1.40667e-05
2.12803e-05
8.65096e-05
-1.92434e-05
2.05089e-05
8.23748e-05
-2.21649e-05
1.92434e-05
7.57469e-05
1.73632e-05
6.61817e-05
-2.22236e-05
2.37475e-05
1.27974e-05
7.30466e-05
-2.38201e-05
2.05089e-05
1.40668e-05
8.23748e-05
1.49074e-05
1.49074e-05
8.85238e-05
7.81118e-06
1.54058e-05
9.21799e-05
-3.3847e-13
1.56361e-05
9.38685e-05
-7.81118e-06
1.56361e-05
9.38685e-05
-1.49074e-05
1.54058e-05
9.21799e-05
-2.05089e-05
1.49074e-05
8.85238e-05
-2.37475e-05
1.40667e-05
8.23748e-05
1.27974e-05
7.30466e-05
-2.38201e-05
2.47451e-05
6.7753e-06
7.76043e-05
-2.48591e-05
2.12803e-05
7.40169e-06
8.65096e-05
1.54058e-05
7.81118e-06
9.21799e-05
8.04889e-06
8.04889e-06
9.54316e-05
-1.07241e-12
8.15735e-06
9.68914e-05
-8.04889e-06
8.15735e-06
9.68914e-05
-1.54058e-05
8.04889e-06
9.54316e-05
-2.12803e-05
7.81118e-06
9.21799e-05
-2.47451e-05
7.40169e-06
8.65096e-05
6.77529e-06
7.76042e-05
-2.48591e-05
2.52218e-05
2.3742e-12
7.98656e-05
-2.53637e-05
2.16425e-05
2.10874e-12
8.84861e-05
1.56361e-05
1.71408e-12
9.38685e-05
8.15735e-06
2.08577e-12
9.68914e-05
-2.37116e-12
2.4741e-12
9.82256e-05
-8.15735e-06
1.68817e-12
9.82256e-05
-1.56361e-05
5.57111e-13
9.68914e-05
-2.16425e-05
-1.48279e-13
9.38685e-05
-2.52218e-05
-1.30703e-12
8.84861e-05
-1.77143e-12
7.98656e-05
-2.53637e-05
2.52218e-05
-6.77529e-06
7.98656e-05
-2.53637e-05
2.16425e-05
-7.40169e-06
8.84861e-05
1.56361e-05
-7.81118e-06
9.38685e-05
8.15735e-06
-8.04889e-06
9.68914e-05
-3.10075e-12
-8.15735e-06
9.82256e-05
-8.15735e-06
-8.15735e-06
9.82256e-05
-1.56361e-05
-8.04889e-06
9.68914e-05
-2.16425e-05
-7.81118e-06
9.38685e-05
-2.52218e-05
-7.40169e-06
8.84861e-05
-6.77529e-06
7.98656e-05
-2.53637e-05
2.47451e-05
-1.27974e-05
7.76043e-05
-2.48591e-05
2.12803e-05
-1.40667e-05
8.65096e-05
1.54058e-05
-1.49074e-05
9.21799e-05
8.04889e-06
-1.54058e-05
9.54316e-05
-2.57206e-12
-1.56361e-05
9.68914e-05
-8.0489e-06
-1.56361e-05
9.68914e-05
-1.54058e-05
-1.54058e-05
9.54316e-05
-2.12803e-05
-1.49074e-05
9.21799e-05
-2.47451e-05
-1.40667e-05
8.65096e-05
-1.27974e-05
7.76043e-05
-2.48591e-05
2.37475e-05
-1.73632e-05
7.30466e-05
-2.38201e-05
2.05089e-05
-1.92434e-05
8.23748e-05
1.49074e-05
-2.05089e-05
8.85238e-05
7.81118e-06
-2.12803e-05
9.21799e-05
-1.97626e-12
-2.16425e-05
9.38685e-05
-7.81119e-06
-2.16425e-05
9.38685e-05
-1.49074e-05
-2.12803e-05
9.21799e-05
-2.05089e-05
-2.05089e-05
8.85238e-05
-2.37475e-05
-1.92434e-05
8.23748e-05
-1.73632e-05
7.30466e-05
-2.38201e-05
2.21649e-05
-1.98762e-05
6.61817e-05
-2.22236e-05
1.92434e-05
-2.21649e-05
7.57469e-05
1.40668e-05
-2.37475e-05
8.23748e-05
7.40169e-06
-2.47451e-05
8.65096e-05
-2.04022e-12
-2.52218e-05
8.84861e-05
-7.4017e-06
-2.52218e-05
8.84861e-05
-1.40668e-05
-2.47451e-05
8.65096e-05
-1.92434e-05
-2.37475e-05
8.23748e-05
-2.21649e-05
-2.21649e-05
7.57469e-05
-1.98762e-05
6.61817e-05
-2.22236e-05
1.98762e-05
5.71029e-05
-2.00325e-05
-2.00325e-05
1.73632e-05
6.61817e-05
-2.22236e-05
1.27974e-05
7.30466e-05
-2.38201e-05
6.7753e-06
7.76043e-05
-2.48591e-05
-6.25038e-13
7.98656e-05
-2.53637e-05
-6.77529e-06
7.98656e-05
-2.53637e-05
-1.27974e-05
7.76043e-05
-2.48591e-05
-1.73632e-05
7.30466e-05
-2.38201e-05
-1.98762e-05
6.61817e-05
-2.22236e-05
5.71029e-05
-2.00325e-05
-2.00325e-05
1.18522e-05
1.18522e-05
5.51369e-05
-1.08692e-05
-1.08692e-05
1.09851e-05
1.39502e-05
6.57001e-05
-1.26014e-05
8.42716e-06
1.54856e-05
7.40336e-05
-1.39146e-05
4.56587e-06
1.65224e-05
7.97609e-05
-1.48177e-05
4.75534e-13
1.70437e-05
8.26632e-05
-1.52754e-05
-4.56587e-06
1.70437e-05
8.26632e-05
-1.52754e-05
-8.42716e-06
1.65224e-05
7.97609e-05
-1.48177e-05
-1.09851e-05
1.54856e-05
7.40336e-05
-1.39146e-05
-1.18522e-05
1.39502e-05
6.57001e-05
-1.26014e-05
1.18522e-05
5.51369e-05
-1.08692e-05
-1.08692e-05
1.39502e-05
1.09851e-05
6.57001e-05
-1.26014e-05
1.29802e-05
1.29802e-05
7.76868e-05
9.93513e-06
1.44213e-05
8.64842e-05
5.36756e-06
1.53679e-05
9.22317e-05
-7.194e-13
1.58368e-05
9.50605e-05
-5.36756e-06
1.58368e-05
9.50605e-05
-9.93513e-06
1.53679e-05
9.22317e-05
-1.29802e-05
1.44213e-05
8.64842e-05
-1.39502e-05
1.29802e-05
7.76868e-05
1.09851e-05
6.57001e-05
-1.26014e-05
1.54856e-05
8.42716e-06
7.40336e-05
-1.39146e-05
1.44213e-05
9.93513e-06
8.64842e-05
1.10262e-05
1.10262e-05
9.53139e-05
5.9491e-06
1.17311e-05
0.000100894
-9.05572e-13
1.20766e-05
0.000103578
-5.9491e-06
1.20766e-05
0.000103578
-1.10262e-05
1.17311e-05
0.000100894
-1.44213e-05
1.10262e-05
9.53139e-05
-1.54856e-05
9.93513e-06
8.64842e-05
8.42716e-06
7.40336e-05
-1.39146e-05
1.65224e-05
4.56587e-06
7.97609e-05
-1.48177e-05
1.53679e-05
5.36756e-06
9.22317e-05
1.17311e-05
5.9491e-06
0.000100894
6.32131e-06
6.32131e-06
0.000106251
-6.194e-13
6.50261e-06
0.000108787
-6.32131e-06
6.50261e-06
0.000108787
-1.17311e-05
6.32131e-06
0.000106251
-1.53679e-05
5.9491e-06
0.000100894
-1.65224e-05
5.36756e-06
9.22317e-05
4.56587e-06
7.97609e-05
-1.48177e-05
1.70437e-05
2.03763e-12
8.26632e-05
-1.52754e-05
1.58368e-05
1.71145e-12
9.50605e-05
1.20766e-05
1.39198e-12
0.000103578
6.50261e-06
1.41008e-12
0.000108787
-4.13414e-13
7.34978e-13
0.000111231
-6.50261e-06
-2.56598e-14
0.000111231
-1.20766e-05
2.69777e-13
0.000108787
-1.58368e-05
8.82373e-13
0.000103578
-1.70437e-05
8.9719e-13
9.50605e-05
5.43022e-13
8.26632e-05
-1.52754e-05
1.70437e-05
-4.56587e-06
8.26632e-05
-1.52754e-05
1.58368e-05
-5.36756e-06
9.50605e-05
1.20766e-05
-5.9491e-06
0.000103578
6.50261e-06
-6.32131e-06
0.000108787
-1.19158e-12
-6.50261e-06
0.000111231
-6.50261e-06
-6.50261e-06
0.000111231
-1.20766e-05
-6.32131e-06
0.000108787
-1.58368e-05
-5.9491e-06
0.000103578
-1.70437e-05
-5.36756e-06
9.50605e-05
-4.56587e-06
8.26632e-05
-1.52754e-05
1.65224e-05
-8.42716e-06
7.97609e-05
-1.48177e-05
1.53679e-05
-9.93513e-06
9.22317e-05
1.17311e-05
-1.10262e-05
0.000100894
6.32131e-06
-1.17311e-05
0.000106251
-2.14238e-12
-1.20766e-05
0.000108787
-6.32131e-06
-1.20766e-05
0.000108787
-1.17311e-05
-1.17311e-05
0.000106251
-1.53679e-05
-1.10262e-05
0.000100894
-1.65224e-05
-9.93513e-06
9.22317e-05
-8.42716e-06
7.97609e-05
-1.48177e-05
1.54856e-05
-1.09851e-05
7.40336e-05
-1.39146e-05
1.44213e-05
-1.29802e-05
8.64842e-05
1.10262e-05
-1.44213e-05
9.53139e-05
5.9491e-06
-1.53679e-05
0.000100894
-2.06486e-12
-1.58368e-05
0.000103578
-5.94911e-06
-1.58368e-05
0.000103578
-1.10262e-05
-1.53679e-05
0.000100894
-1.44213e-05
-1.44213e-05
9.53139e-05
-1.54856e-05
-1.29802e-05
8.64842e-05
-1.09851e-05
7.40336e-05
-1.39146e-05
1.39502e-05
-1.18522e-05
6.57001e-05
-1.26014e-05
1.29802e-05
-1.39502e-05
7.76868e-05
9.93513e-06
-1.54856e-05
8.64842e-05
5.36756e-06
-1.65224e-05
9.22317e-05
-1.28867e-12
-1.70437e-05
9.50605e-05
-5.36756e-06
-1.70437e-05
9.50605e-05
-9.93513e-06
-1.65224e-05
9.22317e-05
-1.29802e-05
-1.54856e-05
8.64842e-05
-1.39502e-05
-1.39502e-05
7.76868e-05
-1.18522e-05
6.57001e-05
-1.26014e-05
1.18522e-05
5.51369e-05
-1.08692e-05
-1.08692e-05
1.09851e-05
6.57001e-05
-1.26014e-05
8.42716e-06
7.40336e-05
-1.39146e-05
4.56587e-06
7.97609e-05
-1.48177e-05
-2.017e-14
8.26632e-05
-1.52754e-05
-4.56587e-06
8.26632e-05
-1.52754e-05
-8.42716e-06
7.97609e-05
-1.48177e-05
-1.09851e-05
7.40336e-05
-1.39146e-05
-1.18522e-05
6.57001e-05
-1.26014e-05
5.51369e-05
-1.08692e-05
-1.08692e-05
5.85838e-06
5.85838e-06
5.3741e-05
-5.16041e-06
-5.16041e-06
5.63822e-06
7.24205e-06
6.48777e-05
-6.19951e-06
4.44884e-06
8.34769e-06
7.39322e-05
-7.05695e-06
2.45269e-06
9.13427e-06
8.02948e-05
-7.67206e-06
-1.87898e-12
9.54161e-06
8.35654e-05
-7.9911e-06
-2.4527e-06
9.54161e-06
8.35654e-05
-7.9911e-06
-4.44885e-06
9.13427e-06
8.02948e-05
-7.67206e-06
-5.63822e-06
8.34769e-06
7.39322e-05
-7.05695e-06
-5.85838e-06
7.24205e-06
6.48777e-05
-6.19951e-06
5.85838e-06
5.3741e-05
-5.16041e-06
-5.16041e-06
7.24205e-06
5.63822e-06
6.48777e-05
-6.19951e-06
7.05557e-06
7.05557e-06
7.80598e-05
5.5828e-06
8.17671e-06
8.81279e-05
3.0774e-06
8.95779e-06
9.49136e-05
-1.46083e-12
9.35826e-06
9.83213e-05
-3.0774e-06
9.35826e-06
9.83213e-05
-5.5828e-06
8.95779e-06
9.49136e-05
-7.05557e-06
8.17671e-06
8.81279e-05
-7.24205e-06
7.05557e-06
7.80598e-05
5.63822e-06
6.48777e-05
-6.19951e-06
8.34769e-06
4.44885e-06
7.39322e-05
-7.05694e-06
8.17671e-06
5.5828e-06
8.81279e-05
6.48254e-06
6.48255e-06
9.87023e-05
3.5746e-06
7.10176e-06
0.000105658
-1.7314e-12
7.41692e-06
0.000109094
-3.5746e-06
7.41692e-06
0.000109094
-6.48255e-06
7.10176e-06
0.000105658
-8.17671e-06
6.48255e-06
9.87023e-05
-8.3477e-06
5.5828e-06
8.81279e-05
4.44884e-06
7.39322e-05
-7.05695e-06
9.13427e-06
2.4527e-06
8.02948e-05
-7.67206e-06
8.95779e-06
3.0774e-06
9.49136e-05
7.10176e-06
3.5746e-06
0.000105658
3.91464e-06
3.91464e-06
0.000112625
-1.97866e-12
4.08698e-06
0.000116031
-3.91464e-06
4.08698e-06
0.000116031
-7.10176e-06
3.91464e-06
0.000112625
-8.95779e-06
3.5746e-06
0.000105658
-9.13427e-06
3.0774e-06
9.49136e-05
2.4527e-06
8.02948e-05
-7.67206e-06
9.54161e-06
1.04393e-12
8.35654e-05
-7.9911e-06
9.35826e-06
7.58406e-13
9.83213e-05
7.41692e-06
1.31211e-12
0.000109094
4.08698e-06
1.09691e-12
0.000116031
-1.54623e-12
6.71424e-13
0.000119405
-4.08698e-06
5.92869e-13
0.000119405
-7.41692e-06
9.89405e-13
0.000116031
-9.35826e-06
1.52012e-12
0.000109094
-9.54162e-06
2.25748e-12
9.83213e-05
3.05444e-12
8.35654e-05
-7.9911e-06
9.54161e-06
-2.45269e-06
8.35654e-05
-7.9911e-06
9.35826e-06
-3.0774e-06
9.83213e-05
7.41692e-06
-3.5746e-06
0.000109094
4.08698e-06
-3.91464e-06
0.000116031
-1.64226e-12
-4.08698e-06
0.000119405
-4.08698e-06
-4.08698e-06
0.000119405
-7.41692e-06
-3.91464e-06
0.000116031
-9.35826e-06
-3.5746e-06
0.000109094
-9.54161e-06
-3.0774e-06
9.83213e-05
-2.45269e-06
8.35654e-05
-7.9911e-06
9.13427e-06
-4.44885e-06
8.02948e-05
-7.67206e-06
8.95779e-06
-5.5828e-06
9.49136e-05
7.10176e-06
-6.48255e-06
0.000105658
3.91464e-06
-7.10176e-06
0.000112625
-2.19697e-12
-7.41692e-06
0.000116031
-3.91464e-06
-7.41692e-06
0.000116031
-7.10176e-06
-7.10176e-06
0.000112625
-8.95779e-06
-6.48255e-06
0.000105658
-9.13427e-06
-5.5828e-06
9.49136e-05
-4.44884e-06
8.02948e-05
-7.67206e-06
8.34769e-06
-5.63822e-06
7.39322e-05
-7.05694e-06
8.17671e-06
-7.05557e-06
8.81279e-05
6.48254e-06
-8.17671e-06
9.87023e-05
3.5746e-06
-8.95779e-06
0.000105658
-2.28398e-12
-9.35826e-06
0.000109094
-3.5746e-06
-9.35826e-06
0.000109094
-6.48255e-06
-8.95779e-06
0.000105658
-8.17671e-06
-8.17671e-06
9.87023e-05
-8.34769e-06
-7.05557e-06
8.81279e-05
-5.63822e-06
7.39322e-05
-7.05695e-06
7.24205e-06
-5.85838e-06
6.48777e-05
-6.19951e-06
7.05557e-06
-7.24205e-06
7.80598e-05
5.5828e-06
-8.34769e-06
8.81279e-05
3.0774e-06
-9.13427e-06
9.49136e-05
-1.92332e-12
-9.54161e-06
9.83213e-05
-3.0774e-06
-9.54161e-06
9.83213e-05
-5.5828e-06
-9.13427e-06
9.49136e-05
-7.05557e-06
-8.34769e-06
8.81279e-05
-7.24205e-06
-7.24205e-06
7.80597e-05
-5.85838e-06
6.48777e-05
-6.19951e-06
5.85838e-06
5.3741e-05
-5.16041e-06
-5.16041e-06
5.63822e-06
6.48777e-05
-6.19951e-06
4.44885e-06
7.39322e-05
-7.05695e-06
2.45269e-06
8.02948e-05
-7.67206e-06
-1.10801e-12
8.35654e-05
-7.9911e-06
-2.4527e-06
8.35654e-05
-7.9911e-06
-4.44885e-06
8.02948e-05
-7.67206e-06
-5.63822e-06
7.39322e-05
-7.05695e-06
-5.85838e-06
6.48777e-05
-6.19951e-06
5.3741e-05
-5.16041e-06
-5.16041e-06
3.13765e-06
3.13765e-06
5.28085e-05
-2.67139e-06
-2.67139e-06
3.08995e-06
3.94009e-06
6.42305e-05
-3.24517e-06
2.47978e-06
4.60195e-06
7.36666e-05
-3.72623e-06
1.3813e-06
5.08601e-06
8.03851e-05
-4.07785e-06
-2.99231e-12
5.34119e-06
8.38681e-05
-4.26264e-06
-1.3813e-06
5.34119e-06
8.38681e-05
-4.26264e-06
-2.47979e-06
5.08601e-06
8.03851e-05
-4.07785e-06
-3.08996e-06
4.60195e-06
7.36666e-05
-3.72623e-06
-3.13766e-06
3.94009e-06
6.42305e-05
-3.24517e-06
3.13765e-06
5.28085e-05
-2.6714e-06
-2.67139e-06
3.94009e-06
3.08995e-06
6.42305e-05
-3.24517e-06
3.94927e-06
3.94927e-06
7.80414e-05
3.19024e-06
4.65769e-06
8.88312e-05
1.78081e-06
5.16767e-06
9.62414e-05
-2.62598e-12
5.43451e-06
0.000100009
-1.78082e-06
5.43451e-06
0.000100009
-3.19025e-06
5.16767e-06
9.62414e-05
-3.94927e-06
4.65769e-06
8.88312e-05
-3.9401e-06
3.94927e-06
7.80414e-05
3.08995e-06
6.42305e-05
-3.24517e-06
4.60195e-06
2.47978e-06
7.36666e-05
-3.72623e-06
4.65769e-06
3.19025e-06
8.88312e-05
3.78144e-06
3.78144e-06
0.000100455
2.11545e-06
4.20347e-06
0.000108288
-1.99759e-12
4.42309e-06
0.000112221
-2.11545e-06
4.42309e-06
0.000112221
-3.78144e-06
4.20347e-06
0.000108288
-4.65769e-06
3.78144e-06
0.000100455
-4.60196e-06
3.19025e-06
8.88312e-05
2.47979e-06
7.36666e-05
-3.72624e-06
5.086e-06
1.3813e-06
8.03851e-05
-4.07784e-06
5.16767e-06
1.78082e-06
9.62414e-05
4.20346e-06
2.11545e-06
0.000108288
2.35338e-06
2.35338e-06
0.000116326
-1.91551e-12
2.47683e-06
0.000120331
-2.35339e-06
2.47684e-06
0.000120331
-4.20347e-06
2.35338e-06
0.000116326
-5.16767e-06
2.11545e-06
0.000108288
-5.08601e-06
1.78082e-06
9.62414e-05
1.3813e-06
8.03851e-05
-4.07785e-06
5.34119e-06
-1.23375e-12
8.38681e-05
-4.26264e-06
5.43451e-06
-5.10185e-14
0.000100009
4.42309e-06
1.91545e-13
0.000112221
2.47683e-06
-7.79235e-13
0.000120331
-7.66076e-13
-1.19351e-12
0.000124358
-2.47684e-06
-6.52702e-13
0.000124358
-4.4231e-06
3.63627e-13
0.000120331
-5.43451e-06
1.03786e-12
0.000112221
-5.3412e-06
1.51098e-12
0.000100009
2.3762e-12
8.38681e-05
-4.26265e-06
5.34119e-06
-1.3813e-06
8.38681e-05
-4.26264e-06
5.43451e-06
-1.78082e-06
0.000100009
4.42309e-06
-2.11545e-06
0.000112221
2.47683e-06
-2.35338e-06
0.000120331
-2.77773e-13
-2.47684e-06
0.000124358
-2.47683e-06
-2.47684e-06
0.000124358
-4.4231e-06
-2.35338e-06
0.000120331
-5.43451e-06
-2.11545e-06
0.000112221
-5.3412e-06
-1.78082e-06
0.000100009
-1.3813e-06
8.38681e-05
-4.26265e-06
5.086e-06
-2.47979e-06
8.03851e-05
-4.07785e-06
5.16767e-06
-3.19025e-06
9.62414e-05
4.20346e-06
-3.78144e-06
0.000108288
2.35338e-06
-4.20347e-06
0.000116326
-7.31213e-13
-4.42309e-06
0.000120331
-2.35338e-06
-4.42309e-06
0.000120331
-4.20347e-06
-4.20347e-06
0.000116326
-5.16767e-06
-3.78144e-06
0.000108288
-5.08601e-06
-3.19025e-06
9.62414e-05
-2.47978e-06
8.03851e-05
-4.07785e-06
4.60195e-06
-3.08996e-06
7.36666e-05
-3.72623e-06
4.65769e-06
-3.94927e-06
8.88312e-05
3.78144e-06
-4.65769e-06
0.000100455
2.11545e-06
-5.16767e-06
0.000108288
-9.99118e-13
-5.43451e-06
0.000112221
-2.11545e-06
-5.43451e-06
0.000112221
-3.78144e-06
-5.16767e-06
0.000108288
-4.65769e-06
-4.65769e-06
0.000100455
-4.60195e-06
-3.94927e-06
8.88312e-05
-3.08995e-06
7.36666e-05
-3.72623e-06
3.94009e-06
-3.13766e-06
6.42305e-05
-3.24517e-06
3.94927e-06
-3.94009e-06
7.80414e-05
3.19025e-06
-4.60195e-06
8.88312e-05
1.78082e-06
-5.08601e-06
9.62414e-05
-8.92547e-13
-5.34119e-06
0.000100009
-1.78082e-06
-5.34119e-06
0.000100009
-3.19025e-06
-5.08601e-06
9.62414e-05
-3.94927e-06
-4.60195e-06
8.88312e-05
-3.94009e-06
-3.94009e-06
7.80414e-05
-3.13766e-06
6.42305e-05
-3.24517e-06
3.13766e-06
5.28085e-05
-2.6714e-06
-2.6714e-06
3.08995e-06
6.42305e-05
-3.24517e-06
2.47978e-06
7.36666e-05
-3.72623e-06
1.3813e-06
8.03851e-05
-4.07785e-06
-1.27743e-12
8.38681e-05
-4.26264e-06
-1.3813e-06
8.38681e-05
-4.26265e-06
-2.47979e-06
8.03851e-05
-4.07785e-06
-3.08996e-06
7.36666e-05
-3.72623e-06
-3.13766e-06
6.42305e-05
-3.24517e-06
5.28085e-05
-2.6714e-06
-2.6714e-06
1.64166e-06
1.64166e-06
5.2289e-05
-1.38191e-06
-1.38191e-06
1.63974e-06
2.09453e-06
6.38333e-05
-1.69546e-06
1.33154e-06
2.4802e-06
7.34598e-05
-1.9652e-06
7.47434e-07
2.76794e-06
8.03662e-05
-2.16495e-06
-3.47527e-12
2.9214e-06
8.39649e-05
-2.2707e-06
-7.47441e-07
2.9214e-06
8.39649e-05
-2.2707e-06
-1.33155e-06
2.76794e-06
8.03662e-05
-2.16495e-06
-1.63975e-06
2.4802e-06
7.34598e-05
-1.96521e-06
-1.64166e-06
2.09453e-06
6.38333e-05
-1.69546e-06
1.64166e-06
5.2289e-05
-1.38191e-06
-1.38191e-06
2.09453e-06
1.63974e-06
6.38333e-05
-1.69546e-06
2.13831e-06
2.13831e-06
7.79538e-05
1.75298e-06
2.56462e-06
8.91321e-05
9.87805e-07
2.87923e-06
9.68952e-05
-3.36679e-12
3.0463e-06
0.000100872
-9.87812e-07
3.0463e-06
0.000100872
-1.75299e-06
2.87924e-06
9.68952e-05
-2.13832e-06
2.56462e-06
8.91321e-05
-2.09453e-06
2.13831e-06
7.79538e-05
1.63974e-06
6.38333e-05
-1.69546e-06
2.4802e-06
1.33154e-06
7.34598e-05
-1.9652e-06
2.56462e-06
1.75299e-06
8.91321e-05
2.11768e-06
2.11768e-06
0.000101349
1.19747e-06
2.38542e-06
0.000109702
-1.49939e-12
2.5271e-06
0.000113937
-1.19747e-06
2.5271e-06
0.000113937
-2.11768e-06
2.38542e-06
0.000109702
-2.56463e-06
2.11768e-06
0.000101349
-2.4802e-06
1.75299e-06
8.91321e-05
1.33154e-06
7.34598e-05
-1.96521e-06
2.76793e-06
7.47436e-07
8.03662e-05
-2.16495e-06
2.87923e-06
9.87807e-07
9.68952e-05
2.38541e-06
1.19747e-06
0.000109702
1.35106e-06
1.35106e-06
0.000118394
-1.02444e-12
1.43219e-06
0.000122777
-1.35106e-06
1.43219e-06
0.000122777
-2.38542e-06
1.35106e-06
0.000118394
-2.87924e-06
1.19747e-06
0.000109702
-2.76794e-06
9.8781e-07
9.68952e-05
7.47439e-07
8.03662e-05
-2.16496e-06
2.9214e-06
-2.38496e-12
8.39649e-05
-2.27069e-06
3.04629e-06
-1.82445e-12
0.000100872
2.5271e-06
-2.52461e-12
0.000113937
1.43219e-06
-3.42985e-12
0.000122777
-4.68274e-13
-3.36227e-12
0.000127223
-1.43219e-06
-2.64608e-12
0.000127223
-2.52711e-06
-1.46322e-12
0.000122777
-3.0463e-06
-6.59944e-13
0.000113937
-2.92141e-06
-3.61477e-13
0.000100872
2.30739e-13
8.39649e-05
-2.2707e-06
2.9214e-06
-7.4744e-07
8.39649e-05
-2.2707e-06
3.04629e-06
-9.87811e-07
0.000100872
2.5271e-06
-1.19747e-06
0.000113937
1.43219e-06
-1.35106e-06
0.000122777
2.24193e-13
-1.43219e-06
0.000127223
-1.43219e-06
-1.43219e-06
0.000127223
-2.52711e-06
-1.35106e-06
0.000122777
-3.0463e-06
-1.19747e-06
0.000113937
-2.92141e-06
-9.87809e-07
0.000100872
-7.47437e-07
8.39649e-05
-2.2707e-06
2.76793e-06
-1.33154e-06
8.03662e-05
-2.16495e-06
2.87923e-06
-1.75299e-06
9.68952e-05
2.38541e-06
-2.11768e-06
0.000109702
1.35106e-06
-2.38542e-06
0.000118394
5.17324e-13
-2.52711e-06
0.000122777
-1.35106e-06
-2.52711e-06
0.000122777
-2.38542e-06
-2.38542e-06
0.000118394
-2.87924e-06
-2.11768e-06
0.000109702
-2.76794e-06
-1.75299e-06
9.68952e-05
-1.33154e-06
8.03662e-05
-2.16496e-06
2.4802e-06
-1.63975e-06
7.34598e-05
-1.9652e-06
2.56462e-06
-2.13831e-06
8.91321e-05
2.11768e-06
-2.56462e-06
0.000101349
1.19747e-06
-2.87924e-06
0.000109702
3.02579e-14
-3.0463e-06
0.000113937
-1.19747e-06
-3.0463e-06
0.000113937
-2.11768e-06
-2.87924e-06
0.000109702
-2.56462e-06
-2.56462e-06
0.000101349
-2.4802e-06
-2.13832e-06
8.91321e-05
-1.63975e-06
7.34598e-05
-1.96521e-06
2.09453e-06
-1.64166e-06
6.38333e-05
-1.69546e-06
2.13831e-06
-2.09453e-06
7.79538e-05
1.75298e-06
-2.4802e-06
8.91321e-05
9.87807e-07
-2.76794e-06
9.68952e-05
-9.56244e-13
-2.9214e-06
0.000100872
-9.87809e-07
-2.9214e-06
0.000100872
-1.75299e-06
-2.76794e-06
9.68952e-05
-2.13832e-06
-2.4802e-06
8.91321e-05
-2.09453e-06
-2.09453e-06
7.79538e-05
-1.64166e-06
6.38333e-05
-1.69546e-06
1.64166e-06
5.2289e-05
-1.38191e-06
-1.38191e-06
1.63974e-06
6.38333e-05
-1.69546e-06
1.33154e-06
7.34598e-05
-1.9652e-06
7.47436e-07
8.03662e-05
-2.16495e-06
-2.18009e-12
8.39649e-05
-2.2707e-06
-7.47439e-07
8.39649e-05
-2.2707e-06
-1.33154e-06
8.03662e-05
-2.16496e-06
-1.63975e-06
7.34598e-05
-1.96521e-06
-1.64166e-06
6.38333e-05
-1.69546e-06
5.2289e-05
-1.38191e-06
-1.38191e-06
9.09062e-07
9.09063e-07
5.19879e-05
-7.58536e-07
-7.58536e-07
9.14143e-07
1.16313e-06
6.35971e-05
-9.31951e-07
7.46511e-07
1.38216e-06
7.33271e-05
-1.0818e-06
4.20593e-07
1.5474e-06
8.03382e-05
-1.1934e-06
-3.93564e-12
1.63617e-06
8.4002e-05
-1.25273e-06
-4.20602e-07
1.63617e-06
8.4002e-05
-1.25273e-06
-7.46519e-07
1.5474e-06
8.03382e-05
-1.19341e-06
-9.14151e-07
1.38216e-06
7.33271e-05
-1.0818e-06
-9.09066e-07
1.16313e-06
6.35971e-05
-9.31951e-07
9.09065e-07
5.19879e-05
-7.58538e-07
-7.58535e-07
1.16313e-06
9.14145e-07
6.35971e-05
-9.31952e-07
1.19818e-06
1.19818e-06
7.78837e-05
9.89668e-07
1.44541e-06
8.92774e-05
5.60445e-07
1.63059e-06
9.72413e-05
-3.65925e-12
1.72985e-06
0.000101338
-5.60453e-07
1.72985e-06
0.000101338
-9.89676e-07
1.63059e-06
9.72413e-05
-1.19819e-06
1.44541e-06
8.92774e-05
-1.16313e-06
1.19818e-06
7.78837e-05
9.14144e-07
6.35971e-05
-9.31956e-07
1.38216e-06
7.46513e-07
7.33271e-05
-1.0818e-06
1.44541e-06
9.8967e-07
8.92774e-05
1.20467e-06
1.20467e-06
0.00010183
6.85364e-07
1.36532e-06
0.000110487
-2.53592e-12
1.45128e-06
0.000114901
-6.8537e-07
1.45128e-06
0.000114901
-1.20468e-06
1.36532e-06
0.000110487
-1.44542e-06
1.20467e-06
0.00010183
-1.38217e-06
9.89672e-07
8.92774e-05
7.46514e-07
7.33271e-05
-1.0818e-06
1.5474e-06
4.20596e-07
8.03382e-05
-1.1934e-06
1.63059e-06
5.60448e-07
9.72413e-05
1.36532e-06
6.85364e-07
0.000110487
7.78654e-07
7.78654e-07
0.000119568
-3.07609e-12
8.2853e-07
0.000124178
-7.78661e-07
8.2853e-07
0.000124178
-1.36533e-06
7.78654e-07
0.000119568
-1.6306e-06
6.85365e-07
0.000110487
-1.54741e-06
5.60449e-07
9.72413e-05
4.20598e-07
8.03382e-05
-1.19341e-06
1.63617e-06
-2.25099e-12
8.4002e-05
-1.25273e-06
1.72985e-06
-1.9105e-12
0.000101338
1.45128e-06
-3.19545e-12
0.000114901
8.2853e-07
-4.51265e-12
0.000124178
-3.35606e-12
-4.32767e-12
0.00012888
-8.28536e-07
-3.67583e-12
0.00012888
-1.45128e-06
-2.75901e-12
0.000124178
-1.72985e-06
-1.65381e-12
0.000114901
-1.63617e-06
-7.94862e-13
0.000101338
-2.45026e-13
8.4002e-05
-1.25274e-06
1.63617e-06
-4.206e-07
8.4002e-05
-1.25273e-06
1.72985e-06
-5.60452e-07
0.000101338
1.45128e-06
-6.85369e-07
0.000114901
8.28531e-07
-7.78661e-07
0.000124178
-2.73404e-12
-8.28537e-07
0.00012888
-8.28536e-07
-8.28536e-07
0.00012888
-1.45128e-06
-7.78659e-07
0.000124178
-1.72985e-06
-6.85367e-07
0.000114901
-1.63617e-06
-5.60449e-07
0.000101338
-4.20597e-07
8.4002e-05
-1.25274e-06
1.5474e-06
-7.46518e-07
8.03382e-05
-1.1934e-06
1.63059e-06
-9.89675e-07
9.72413e-05
1.36532e-06
-1.20468e-06
0.000110487
7.78655e-07
-1.36532e-06
0.000119568
-1.90245e-12
-1.45128e-06
0.000124178
-7.78658e-07
-1.45128e-06
0.000124178
-1.36532e-06
-1.36532e-06
0.000119568
-1.63059e-06
-1.20467e-06
0.000110487
-1.5474e-06
-9.89672e-07
9.72413e-05
-7.46514e-07
8.03382e-05
-1.19341e-06
1.38216e-06
-9.14149e-07
7.33271e-05
-1.08179e-06
1.44541e-06
-1.19819e-06
8.92774e-05
1.20467e-06
-1.44541e-06
0.00010183
6.85364e-07
-1.63059e-06
0.000110487
-1.46963e-12
-1.72985e-06
0.000114901
-6.85367e-07
-1.72985e-06
0.000114901
-1.20468e-06
-1.63059e-06
0.000110487
-1.44541e-06
-1.44541e-06
0.00010183
-1.38217e-06
-1.19819e-06
8.92774e-05
-9.14147e-07
7.33271e-05
-1.0818e-06
1.16313e-06
-9.09063e-07
6.35971e-05
-9.31949e-07
1.19818e-06
-1.16313e-06
7.78837e-05
9.89669e-07
-1.38216e-06
8.92774e-05
5.60447e-07
-1.5474e-06
9.72413e-05
-1.33092e-12
-1.63617e-06
0.000101338
-5.6045e-07
-1.63617e-06
0.000101338
-9.89673e-07
-1.5474e-06
9.72413e-05
-1.19819e-06
-1.38217e-06
8.92774e-05
-1.16313e-06
-1.16313e-06
7.78837e-05
-9.09065e-07
6.35971e-05
-9.31956e-07
9.0906e-07
5.19879e-05
-7.58534e-07
-7.58532e-07
9.14144e-07
6.35971e-05
-9.31953e-07
7.46512e-07
7.33271e-05
-1.0818e-06
4.20595e-07
8.03382e-05
-1.19341e-06
-1.32508e-12
8.4002e-05
-1.25273e-06
-4.20599e-07
8.4002e-05
-1.25273e-06
-7.46516e-07
8.03382e-05
-1.19341e-06
-9.1415e-07
7.33271e-05
-1.0818e-06
-9.09065e-07
6.35971e-05
-9.31953e-07
5.19879e-05
-7.58538e-07
-7.58538e-07
5.05601e-07
5.05602e-07
5.18187e-05
-4.21012e-07
-4.2101e-07
5.10412e-07
6.49445e-07
6.34612e-05
-5.18367e-07
4.18339e-07
7.74704e-07
7.32476e-05
-6.03089e-07
2.36297e-07
8.69839e-07
8.03168e-05
-6.6642e-07
-3.58873e-12
9.21159e-07
8.40173e-05
-7.00152e-07
-2.36305e-07
9.21159e-07
8.40173e-05
-7.00153e-07
-4.18346e-07
8.69839e-07
8.03168e-05
-6.66421e-07
-5.10417e-07
7.74705e-07
7.32476e-05
-6.0309e-07
-5.05602e-07
6.49446e-07
6.34612e-05
-5.18367e-07
5.05602e-07
5.18187e-05
-4.21011e-07
-4.2101e-07
6.49444e-07
5.10414e-07
6.34612e-05
-5.18368e-07
6.72614e-07
6.72616e-07
7.78374e-05
5.58264e-07
8.1559e-07
8.93508e-05
3.17195e-07
9.23696e-07
9.74285e-05
-3.37087e-12
9.81986e-07
0.000101595
-3.17203e-07
9.81987e-07
0.000101595
-5.58271e-07
9.23699e-07
9.74285e-05
-6.7262e-07
8.15592e-07
8.93508e-05
-6.49446e-07
6.72618e-07
7.78374e-05
5.10413e-07
6.34612e-05
-5.18369e-07
7.74703e-07
4.18341e-07
7.32476e-05
-6.03089e-07
8.15588e-07
5.58267e-07
8.93508e-05
6.83795e-07
6.83798e-07
0.000102094
3.90596e-07
7.78671e-07
0.000110925
-2.30528e-12
8.29802e-07
0.000115444
-3.90602e-07
8.298e-07
0.000115444
-6.83803e-07
7.78668e-07
0.000110925
-8.15595e-07
6.83796e-07
0.000102094
-7.74707e-07
5.58266e-07
8.93508e-05
4.1834e-07
7.32476e-05
-6.03091e-07
8.69838e-07
2.363e-07
8.03168e-05
-6.66418e-07
9.23694e-07
3.17199e-07
9.74285e-05
7.78668e-07
3.90598e-07
0.000110925
4.46109e-07
4.46111e-07
0.000120233
-3.85937e-12
4.76028e-07
0.000124978
-4.46116e-07
4.76027e-07