/*--------------------------------*- C++ -*----------------------------------*\
| =========                 |                                                 |
| \\      /  F ield         | OpenFOAM: The Open Source CFD Toolbox           |
|  \\    /   O peration     | Version:  2412                                  |
|   \\  /    A nd           | Website:  www.openfoam.com                      |
|    \\/     M anipulation  |                                                 |
\*---------------------------------------------------------------------------*/
FoamFile
{
    version     2.0;
    format      ascii;
    arch        "LSB;label=32;scalar=64";
    class       volVectorField;
    location    "0.6";
    object      U;
}
// * * * * * * * * * * * * * * * * * * * * * * * * * * * * * * * * * * * * * //

dimensions      [0 1 -1 0 0 0 0];

internalField   nonuniform List<vector> 
15000
(
(0.228907 0.228908 1.09642)
(0.185942 0.242203 1.11728)
(0.134987 0.248633 1.12521)
(0.0815406 0.251801 1.12745)
(0.0272526 0.25306 1.12771)
(-0.0272525 0.25306 1.12771)
(-0.0815406 0.251801 1.12745)
(-0.134987 0.248633 1.12521)
(-0.185942 0.242203 1.11728)
(-0.228908 0.228908 1.09642)
(0.242203 0.185942 1.11728)
(0.191435 0.191435 1.13034)
(0.135769 0.193538 1.13005)
(0.0807933 0.194086 1.12631)
(0.0268006 0.194068 1.12356)
(-0.0268006 0.194068 1.12356)
(-0.0807933 0.194086 1.12631)
(-0.135769 0.193538 1.13005)
(-0.191435 0.191435 1.13034)
(-0.242203 0.185942 1.11728)
(0.248633 0.134987 1.12521)
(0.193538 0.135769 1.13005)
(0.135542 0.135542 1.1239)
(0.0798357 0.13488 1.11643)
(0.0263313 0.134349 1.11191)
(-0.0263312 0.134349 1.11191)
(-0.0798357 0.13488 1.11643)
(-0.135542 0.135542 1.1239)
(-0.193538 0.135769 1.13005)
(-0.248633 0.134987 1.12521)
(0.251801 0.0815406 1.12745)
(0.194086 0.0807933 1.12631)
(0.13488 0.0798357 1.11643)
(0.0789166 0.0789166 1.10682)
(0.0259287 0.0783471 1.10132)
(-0.0259287 0.078347 1.10132)
(-0.0789165 0.0789165 1.10682)
(-0.13488 0.0798357 1.11643)
(-0.194086 0.0807933 1.12631)
(-0.251801 0.0815406 1.12745)
(0.25306 0.0272526 1.12771)
(0.194068 0.0268006 1.12356)
(0.134349 0.0263313 1.11191)
(0.0783471 0.0259287 1.10132)
(0.0256933 0.0256933 1.09541)
(-0.0256933 0.0256933 1.09541)
(-0.078347 0.0259287 1.10132)
(-0.134349 0.0263312 1.11191)
(-0.194068 0.0268005 1.12356)
(-0.25306 0.0272525 1.12771)
(0.25306 -0.0272525 1.12771)
(0.194068 -0.0268006 1.12356)
(0.134349 -0.0263312 1.11191)
(0.0783471 -0.0259287 1.10132)
(0.0256933 -0.0256933 1.09541)
(-0.0256933 -0.0256933 1.09541)
(-0.0783471 -0.0259287 1.10132)
(-0.134349 -0.0263313 1.11191)
(-0.194068 -0.0268006 1.12356)
(-0.25306 -0.0272526 1.12771)
(0.251801 -0.0815406 1.12745)
(0.194086 -0.0807933 1.12631)
(0.13488 -0.0798357 1.11643)
(0.0789166 -0.0789165 1.10682)
(0.0259287 -0.0783471 1.10132)
(-0.0259287 -0.0783471 1.10132)
(-0.0789166 -0.0789165 1.10682)
(-0.13488 -0.0798357 1.11643)
(-0.194086 -0.0807933 1.12631)
(-0.251801 -0.0815406 1.12745)
(0.248633 -0.134987 1.12521)
(0.193538 -0.135769 1.13005)
(0.135542 -0.135542 1.1239)
(0.0798357 -0.13488 1.11643)
(0.0263313 -0.134349 1.11191)
(-0.0263312 -0.134349 1.11191)
(-0.0798357 -0.13488 1.11643)
(-0.135542 -0.135542 1.1239)
(-0.193538 -0.135769 1.13005)
(-0.248633 -0.134987 1.12521)
(0.242203 -0.185942 1.11728)
(0.191435 -0.191435 1.13034)
(0.135769 -0.193538 1.13005)
(0.0807933 -0.194086 1.12631)
(0.0268006 -0.194068 1.12356)
(-0.0268006 -0.194068 1.12356)
(-0.0807933 -0.194086 1.12631)
(-0.135769 -0.193538 1.13005)
(-0.191435 -0.191435 1.13034)
(-0.242203 -0.185942 1.11728)
(0.228907 -0.228907 1.09642)
(0.185942 -0.242203 1.11728)
(0.134987 -0.248633 1.12521)
(0.0815406 -0.251801 1.12745)
(0.0272525 -0.25306 1.12771)
(-0.0272525 -0.25306 1.12771)
(-0.0815406 -0.251801 1.12745)
(-0.134987 -0.248633 1.12521)
(-0.185942 -0.242203 1.11728)
(-0.228907 -0.228907 1.09642)
(0.119433 0.119433 1.27601)
(0.105305 0.142195 1.33638)
(0.0822748 0.160323 1.37029)
(0.0523248 0.17285 1.3878)
(0.0179349 0.179205 1.39498)
(-0.0179349 0.179205 1.39498)
(-0.0523248 0.17285 1.3878)
(-0.0822748 0.160323 1.37029)
(-0.105305 0.142195 1.33638)
(-0.119433 0.119433 1.27601)
(0.142195 0.105305 1.33638)
(0.125602 0.125602 1.3917)
(0.097416 0.141608 1.41407)
(0.0614424 0.152425 1.4211)
(0.0209592 0.157837 1.42242)
(-0.0209592 0.157837 1.42242)
(-0.0614424 0.152425 1.4211)
(-0.0974159 0.141608 1.41407)
(-0.125602 0.125602 1.3917)
(-0.142195 0.105305 1.33638)
(0.160323 0.0822748 1.37029)
(0.141608 0.097416 1.41407)
(0.109224 0.109224 1.42562)
(0.0684584 0.117081 1.42434)
(0.023269 0.120977 1.42122)
(-0.023269 0.120977 1.42122)
(-0.0684584 0.117081 1.42434)
(-0.109224 0.109224 1.42562)
(-0.141608 0.0974159 1.41407)
(-0.160323 0.0822748 1.37029)
(0.17285 0.0523248 1.3878)
(0.152425 0.0614424 1.4211)
(0.117081 0.0684584 1.42434)
(0.0730789 0.0730789 1.41725)
(0.0247827 0.0753577 1.41115)
(-0.0247827 0.0753577 1.41115)
(-0.0730789 0.0730789 1.41725)
(-0.117081 0.0684583 1.42434)
(-0.152425 0.0614424 1.4211)
(-0.17285 0.0523248 1.3878)
(0.179205 0.0179349 1.39498)
(0.157837 0.0209592 1.42242)
(0.120977 0.023269 1.42122)
(0.0753577 0.0247827 1.41115)
(0.0255273 0.0255273 1.40356)
(-0.0255273 0.0255273 1.40356)
(-0.0753577 0.0247827 1.41115)
(-0.120977 0.023269 1.42122)
(-0.157837 0.0209592 1.42242)
(-0.179205 0.0179349 1.39498)
(0.179205 -0.0179349 1.39498)
(0.157837 -0.0209592 1.42242)
(0.120977 -0.023269 1.42122)
(0.0753577 -0.0247827 1.41115)
(0.0255273 -0.0255273 1.40356)
(-0.0255273 -0.0255273 1.40356)
(-0.0753577 -0.0247827 1.41115)
(-0.120977 -0.023269 1.42122)
(-0.157837 -0.0209592 1.42242)
(-0.179205 -0.0179349 1.39498)
(0.17285 -0.0523248 1.3878)
(0.152425 -0.0614424 1.4211)
(0.117081 -0.0684584 1.42434)
(0.0730789 -0.0730789 1.41725)
(0.0247827 -0.0753577 1.41115)
(-0.0247827 -0.0753577 1.41115)
(-0.0730789 -0.0730789 1.41725)
(-0.117081 -0.0684584 1.42434)
(-0.152425 -0.0614424 1.4211)
(-0.17285 -0.0523248 1.3878)
(0.160323 -0.0822748 1.37029)
(0.141608 -0.0974159 1.41407)
(0.109224 -0.109224 1.42562)
(0.0684584 -0.117081 1.42434)
(0.023269 -0.120977 1.42122)
(-0.023269 -0.120977 1.42122)
(-0.0684584 -0.117081 1.42434)
(-0.109224 -0.109224 1.42562)
(-0.141608 -0.0974159 1.41407)
(-0.160323 -0.0822748 1.37029)
(0.142195 -0.105305 1.33638)
(0.125602 -0.125602 1.3917)
(0.0974159 -0.141608 1.41407)
(0.0614424 -0.152425 1.4211)
(0.0209592 -0.157837 1.42242)
(-0.0209592 -0.157837 1.42242)
(-0.0614424 -0.152425 1.4211)
(-0.0974159 -0.141608 1.41407)
(-0.125602 -0.125602 1.3917)
(-0.142195 -0.105305 1.33638)
(0.119433 -0.119433 1.27601)
(0.105305 -0.142195 1.33638)
(0.0822748 -0.160323 1.37029)
(0.0523248 -0.17285 1.3878)
(0.0179349 -0.179205 1.39498)
(-0.0179349 -0.179205 1.39498)
(-0.0523248 -0.17285 1.3878)
(-0.0822748 -0.160323 1.37029)
(-0.105305 -0.142195 1.33638)
(-0.119433 -0.119433 1.27601)
(0.0691678 0.0691678 1.1775)
(0.0663285 0.0860612 1.28498)
(0.0542915 0.100121 1.35876)
(0.0355724 0.110451 1.40443)
(0.0123761 0.115907 1.42606)
(-0.0123761 0.115907 1.42606)
(-0.0355724 0.110451 1.40443)
(-0.0542915 0.100121 1.35876)
(-0.0663285 0.0860612 1.28498)
(-0.0691678 0.0691678 1.1775)
(0.0860612 0.0663285 1.28498)
(0.0829902 0.0829902 1.40363)
(0.0680489 0.0969392 1.47467)
(0.0444957 0.107019 1.51405)
(0.01545 0.112284 1.5314)
(-0.01545 0.112284 1.5314)
(-0.0444957 0.107019 1.51405)
(-0.0680488 0.0969392 1.47467)
(-0.0829902 0.0829902 1.40363)
(-0.0860612 0.0663285 1.28498)
(0.100121 0.0542915 1.35876)
(0.0969392 0.0680489 1.47467)
(0.079551 0.079551 1.53953)
(0.0519014 0.0877176 1.57249)
(0.0179916 0.0919409 1.58593)
(-0.0179916 0.0919409 1.58593)
(-0.0519014 0.0877176 1.57249)
(-0.079551 0.079551 1.53953)
(-0.0969392 0.0680488 1.47467)
(-0.100121 0.0542915 1.35876)
(0.110451 0.0355724 1.40443)
(0.107019 0.0444957 1.51405)
(0.0877176 0.0519014 1.57249)
(0.0571038 0.0571038 1.60012)
(0.0197696 0.0597793 1.61056)
(-0.0197696 0.0597793 1.61056)
(-0.0571038 0.0571038 1.60012)
(-0.0877176 0.0519013 1.57249)
(-0.107019 0.0444957 1.51405)
(-0.110451 0.0355724 1.40443)
(0.115907 0.0123761 1.42606)
(0.112284 0.01545 1.5314)
(0.0919409 0.0179916 1.58593)
(0.0597793 0.0197696 1.61056)
(0.0206819 0.0206819 1.61936)
(-0.0206819 0.0206819 1.61936)
(-0.0597794 0.0197696 1.61056)
(-0.0919409 0.0179916 1.58593)
(-0.112284 0.01545 1.5314)
(-0.115907 0.0123761 1.42606)
(0.115907 -0.0123761 1.42606)
(0.112284 -0.01545 1.5314)
(0.0919409 -0.0179916 1.58593)
(0.0597793 -0.0197696 1.61056)
(0.0206819 -0.0206819 1.61936)
(-0.0206819 -0.0206819 1.61936)
(-0.0597794 -0.0197696 1.61056)
(-0.0919409 -0.0179916 1.58593)
(-0.112284 -0.01545 1.5314)
(-0.115907 -0.0123761 1.42606)
(0.110451 -0.0355724 1.40443)
(0.107019 -0.0444957 1.51405)
(0.0877176 -0.0519013 1.57249)
(0.0571038 -0.0571038 1.60012)
(0.0197696 -0.0597793 1.61056)
(-0.0197696 -0.0597793 1.61056)
(-0.0571038 -0.0571038 1.60012)
(-0.0877176 -0.0519013 1.57249)
(-0.107019 -0.0444957 1.51405)
(-0.110451 -0.0355723 1.40443)
(0.100121 -0.0542915 1.35876)
(0.0969392 -0.0680489 1.47467)
(0.079551 -0.079551 1.53953)
(0.0519013 -0.0877176 1.57249)
(0.0179916 -0.0919409 1.58593)
(-0.0179916 -0.0919409 1.58593)
(-0.0519014 -0.0877176 1.57249)
(-0.079551 -0.079551 1.53953)
(-0.0969392 -0.0680488 1.47467)
(-0.100121 -0.0542915 1.35876)
(0.0860612 -0.0663285 1.28498)
(0.0829902 -0.0829902 1.40363)
(0.0680489 -0.0969392 1.47467)
(0.0444957 -0.107019 1.51405)
(0.01545 -0.112284 1.5314)
(-0.01545 -0.112284 1.5314)
(-0.0444957 -0.107019 1.51405)
(-0.0680489 -0.0969392 1.47467)
(-0.0829902 -0.0829902 1.40363)
(-0.0860612 -0.0663285 1.28498)
(0.0691678 -0.0691679 1.1775)
(0.0663285 -0.0860612 1.28498)
(0.0542915 -0.100121 1.35876)
(0.0355724 -0.110451 1.40443)
(0.0123761 -0.115907 1.42606)
(-0.0123761 -0.115907 1.42606)
(-0.0355724 -0.110451 1.40443)
(-0.0542915 -0.100121 1.35876)
(-0.0663285 -0.0860612 1.28498)
(-0.0691678 -0.0691678 1.1775)
(0.0332516 0.0332516 1.16091)
(0.0331316 0.0433267 1.28641)
(0.0280844 0.052317 1.37799)
(0.0188541 0.0591906 1.43758)
(0.00663981 0.0629071 1.46676)
(-0.00663983 0.0629071 1.46676)
(-0.0188541 0.0591906 1.43758)
(-0.0280844 0.052317 1.37799)
(-0.0331316 0.0433267 1.28641)
(-0.0332516 0.0332516 1.16091)
(0.0433267 0.0331316 1.28641)
(0.0439778 0.0439778 1.43448)
(0.0376122 0.0536891 1.53212)
(0.0252891 0.0610167 1.5912)
(0.00890235 0.0649471 1.61892)
(-0.00890237 0.0649471 1.61892)
(-0.0252891 0.0610167 1.5912)
(-0.0376122 0.0536891 1.53212)
(-0.0439778 0.0439778 1.43448)
(-0.0433267 0.0331316 1.28641)
(0.052317 0.0280844 1.37799)
(0.0536891 0.0376122 1.53212)
(0.0461137 0.0461137 1.63022)
(0.0310001 0.0524368 1.68711)
(0.010906 0.0558025 1.71295)
(-0.010906 0.0558025 1.71295)
(-0.0310001 0.0524368 1.68711)
(-0.0461137 0.0461137 1.63022)
(-0.0536891 0.0376122 1.53212)
(-0.052317 0.0280844 1.37799)
(0.0591906 0.0188541 1.43758)
(0.0610167 0.0252891 1.5912)
(0.0524368 0.0310001 1.68711)
(0.0352135 0.0352135 1.74128)
(0.0123798 0.0374466 1.76533)
(-0.0123798 0.0374466 1.76533)
(-0.0352135 0.0352135 1.74128)
(-0.0524368 0.0310001 1.68711)
(-0.0610167 0.0252891 1.5912)
(-0.0591907 0.0188541 1.43758)
(0.062907 0.00663982 1.46676)
(0.0649471 0.00890237 1.61892)
(0.0558025 0.010906 1.71295)
(0.0374465 0.0123798 1.76533)
(0.0131594 0.0131595 1.78829)
(-0.0131595 0.0131595 1.78829)
(-0.0374466 0.0123798 1.76533)
(-0.0558025 0.010906 1.71295)
(-0.0649471 0.00890238 1.61892)
(-0.0629071 0.00663984 1.46676)
(0.062907 -0.00663981 1.46676)
(0.0649471 -0.00890236 1.61892)
(0.0558025 -0.010906 1.71295)
(0.0374465 -0.0123798 1.76533)
(0.0131594 -0.0131595 1.78829)
(-0.0131595 -0.0131595 1.78829)
(-0.0374466 -0.0123798 1.76533)
(-0.0558025 -0.010906 1.71295)
(-0.0649471 -0.00890235 1.61892)
(-0.0629071 -0.0066398 1.46676)
(0.0591906 -0.0188541 1.43758)
(0.0610167 -0.0252891 1.5912)
(0.0524368 -0.0310001 1.68711)
(0.0352135 -0.0352135 1.74128)
(0.0123798 -0.0374465 1.76533)
(-0.0123798 -0.0374466 1.76533)
(-0.0352135 -0.0352135 1.74128)
(-0.0524368 -0.0310001 1.68711)
(-0.0610167 -0.0252891 1.5912)
(-0.0591906 -0.0188541 1.43758)
(0.052317 -0.0280844 1.37799)
(0.0536891 -0.0376122 1.53212)
(0.0461137 -0.0461137 1.63022)
(0.0310001 -0.0524368 1.68711)
(0.010906 -0.0558025 1.71295)
(-0.010906 -0.0558025 1.71295)
(-0.0310001 -0.0524368 1.68711)
(-0.0461137 -0.0461137 1.63022)
(-0.0536891 -0.0376122 1.53212)
(-0.052317 -0.0280844 1.37799)
(0.0433267 -0.0331316 1.28641)
(0.0439778 -0.0439778 1.43448)
(0.0376122 -0.0536891 1.53212)
(0.0252891 -0.0610167 1.5912)
(0.00890235 -0.0649471 1.61892)
(-0.00890237 -0.0649471 1.61892)
(-0.0252891 -0.0610167 1.5912)
(-0.0376122 -0.0536891 1.53212)
(-0.0439778 -0.0439778 1.43448)
(-0.0433267 -0.0331316 1.28641)
(0.0332516 -0.0332516 1.16091)
(0.0331316 -0.0433267 1.28641)
(0.0280844 -0.052317 1.37799)
(0.0188541 -0.0591906 1.43758)
(0.00663981 -0.0629071 1.46676)
(-0.00663983 -0.0629071 1.46676)
(-0.0188541 -0.0591906 1.43758)
(-0.0280844 -0.052317 1.37799)
(-0.0331316 -0.0433267 1.28641)
(-0.0332516 -0.0332516 1.16091)
(0.0175934 0.0175934 1.1293)
(0.0181395 0.0231494 1.26458)
(0.0156936 0.0282379 1.36677)
(0.0106825 0.0322345 1.43514)
(0.00378896 0.0344323 1.46924)
(-0.003789 0.0344323 1.46924)
(-0.0106825 0.0322345 1.43514)
(-0.0156937 0.0282379 1.36677)
(-0.0181395 0.0231494 1.26458)
(-0.0175934 0.0175934 1.1293)
(0.0231494 0.0181395 1.26458)
(0.0243795 0.0243795 1.42938)
(0.0213913 0.0301742 1.54374)
(0.0146363 0.0346861 1.61603)
(0.00519825 0.0371533 1.651)
(-0.00519828 0.0371533 1.651)
(-0.0146363 0.0346861 1.61603)
(-0.0213914 0.0301743 1.54374)
(-0.0243795 0.0243795 1.42938)
(-0.0231494 0.0181395 1.26458)
(0.0282379 0.0156937 1.36677)
(0.0301742 0.0213913 1.54374)
(0.0266956 0.0266956 1.66384)
(0.0183097 0.0307756 1.73774)
(0.00650694 0.0329925 1.77278)
(-0.00650697 0.0329925 1.77278)
(-0.0183097 0.0307757 1.73774)
(-0.0266956 0.0266956 1.66384)
(-0.0301743 0.0213914 1.54374)
(-0.028238 0.0156937 1.36677)
(0.0322344 0.0106825 1.43514)
(0.0346861 0.0146363 1.61603)
(0.0307756 0.0183097 1.73774)
(0.0211171 0.0211171 1.81159)
(0.00750489 0.0226371 1.84619)
(-0.00750491 0.0226371 1.84619)
(-0.0211171 0.0211171 1.81159)
(-0.0307757 0.0183097 1.73774)
(-0.0346862 0.0146363 1.61603)
(-0.0322345 0.0106825 1.43514)
(0.0344323 0.00378897 1.46924)
(0.0371533 0.00519827 1.651)
(0.0329925 0.00650695 1.77278)
(0.0226371 0.00750489 1.84619)
(0.00804449 0.00804449 1.8804)
(-0.00804451 0.0080445 1.8804)
(-0.0226371 0.00750491 1.84619)
(-0.0329925 0.00650696 1.77278)
(-0.0371533 0.00519828 1.651)
(-0.0344324 0.003789 1.46924)
(0.0344323 -0.00378899 1.46924)
(0.0371533 -0.00519827 1.651)
(0.0329925 -0.00650695 1.77278)
(0.0226371 -0.0075049 1.84619)
(0.00804449 -0.0080445 1.8804)
(-0.0080445 -0.0080445 1.8804)
(-0.0226371 -0.0075049 1.84619)
(-0.0329925 -0.00650695 1.77278)
(-0.0371533 -0.00519827 1.651)
(-0.0344324 -0.00378897 1.46924)
(0.0322345 -0.0106825 1.43514)
(0.0346861 -0.0146363 1.61603)
(0.0307756 -0.0183097 1.73774)
(0.0211171 -0.0211171 1.81159)
(0.00750489 -0.0226371 1.84619)
(-0.0075049 -0.0226371 1.84619)
(-0.0211171 -0.0211171 1.81159)
(-0.0307757 -0.0183097 1.73774)
(-0.0346861 -0.0146363 1.61603)
(-0.0322345 -0.0106825 1.43514)
(0.0282379 -0.0156937 1.36677)
(0.0301742 -0.0213914 1.54374)
(0.0266956 -0.0266956 1.66384)
(0.0183097 -0.0307757 1.73774)
(0.00650694 -0.0329925 1.77278)
(-0.00650696 -0.0329925 1.77278)
(-0.0183097 -0.0307757 1.73774)
(-0.0266956 -0.0266956 1.66384)
(-0.0301743 -0.0213914 1.54374)
(-0.0282379 -0.0156937 1.36677)
(0.0231494 -0.0181395 1.26458)
(0.0243795 -0.0243795 1.42938)
(0.0213914 -0.0301743 1.54374)
(0.0146363 -0.0346861 1.61603)
(0.00519826 -0.0371533 1.651)
(-0.00519827 -0.0371533 1.651)
(-0.0146363 -0.0346861 1.61603)
(-0.0213914 -0.0301743 1.54374)
(-0.0243795 -0.0243795 1.42938)
(-0.0231494 -0.0181395 1.26458)
(0.0175934 -0.0175934 1.1293)
(0.0181395 -0.0231494 1.26458)
(0.0156937 -0.0282379 1.36677)
(0.0106825 -0.0322345 1.43514)
(0.00378897 -0.0344323 1.46924)
(-0.00378899 -0.0344324 1.46924)
(-0.0106825 -0.0322345 1.43514)
(-0.0156937 -0.0282379 1.36677)
(-0.0181395 -0.0231494 1.26458)
(-0.0175934 -0.0175934 1.1293)
(0.00911971 0.00911971 1.11711)
(0.00954262 0.0121596 1.25663)
(0.00838312 0.0150161 1.36387)
(0.00577075 0.0172965 1.43664)
(0.0020588 0.0185633 1.4733)
(-0.00205884 0.0185633 1.4733)
(-0.0057708 0.0172965 1.43664)
(-0.00838319 0.0150161 1.36387)
(-0.00954268 0.0121596 1.25663)
(-0.00911975 0.00911974 1.11711)
(0.0121595 0.00954264 1.25663)
(0.0130697 0.0130697 1.42944)
(0.0116855 0.0164393 1.5525)
(0.00810286 0.0191161 1.63208)
(0.00289767 0.0205983 1.67117)
(-0.00289772 0.0205983 1.67117)
(-0.00810291 0.0191161 1.63208)
(-0.0116856 0.0164394 1.5525)
(-0.0130698 0.0130698 1.42944)
(-0.0121596 0.00954266 1.25663)
(0.0150161 0.00838314 1.36387)
(0.0164393 0.0116855 1.5525)
(0.0148558 0.0148558 1.6848)
(0.0103427 0.0173519 1.76869)
(0.00370398 0.018728 1.80931)
(-0.003704 0.018728 1.80931)
(-0.0103427 0.0173519 1.76869)
(-0.0148559 0.0148558 1.6848)
(-0.0164394 0.0116856 1.5525)
(-0.0150162 0.00838316 1.36387)
(0.0172965 0.00577076 1.43664)
(0.019116 0.00810287 1.63208)
(0.0173519 0.0103427 1.76869)
(0.0120985 0.0120985 1.85458)
(0.00433529 0.0130643 1.89588)
(-0.00433531 0.0130643 1.89588)
(-0.0120986 0.0120985 1.85458)
(-0.0173519 0.0103427 1.76869)
(-0.0191161 0.0081029 1.63208)
(-0.0172966 0.00577079 1.43664)
(0.0185633 0.00205881 1.4733)
(0.0205983 0.00289768 1.67117)
(0.018728 0.00370398 1.80931)
(0.0130643 0.00433528 1.89588)
(0.00468225 0.00468223 1.93736)
(-0.00468226 0.00468224 1.93736)
(-0.0130643 0.0043353 1.89588)
(-0.018728 0.00370399 1.80931)
(-0.0205983 0.0028977 1.67117)
(-0.0185634 0.00205883 1.4733)
(0.0185633 -0.00205884 1.4733)
(0.0205983 -0.00289771 1.67117)
(0.018728 -0.003704 1.80931)
(0.0130643 -0.00433532 1.89588)
(0.00468225 -0.00468227 1.93736)
(-0.00468225 -0.00468227 1.93736)
(-0.0130643 -0.00433531 1.89588)
(-0.018728 -0.00370399 1.80931)
(-0.0205983 -0.0028977 1.67117)
(-0.0185634 -0.00205882 1.4733)
(0.0172965 -0.00577079 1.43664)
(0.019116 -0.0081029 1.63208)
(0.0173519 -0.0103427 1.76869)
(0.0120985 -0.0120985 1.85458)
(0.0043353 -0.0130643 1.89588)
(-0.0043353 -0.0130643 1.89588)
(-0.0120985 -0.0120985 1.85458)
(-0.0173519 -0.0103427 1.76869)
(-0.0191161 -0.0081029 1.63208)
(-0.0172966 -0.00577077 1.43664)
(0.0150161 -0.00838317 1.36387)
(0.0164393 -0.0116856 1.5525)
(0.0148558 -0.0148558 1.6848)
(0.0103427 -0.0173519 1.76869)
(0.00370399 -0.018728 1.80931)
(-0.00370399 -0.018728 1.80931)
(-0.0103427 -0.0173519 1.76869)
(-0.0148558 -0.0148558 1.6848)
(-0.0164394 -0.0116856 1.5525)
(-0.0150161 -0.00838316 1.36387)
(0.0121595 -0.00954265 1.25663)
(0.0130697 -0.0130697 1.42944)
(0.0116855 -0.0164393 1.5525)
(0.00810288 -0.0191161 1.63208)
(0.00289769 -0.0205983 1.67117)
(-0.0028977 -0.0205983 1.67117)
(-0.00810289 -0.0191161 1.63208)
(-0.0116856 -0.0164394 1.5525)
(-0.0130698 -0.0130698 1.42944)
(-0.0121596 -0.00954267 1.25663)
(0.00911972 -0.00911972 1.11711)
(0.00954264 -0.0121596 1.25663)
(0.00838314 -0.0150161 1.36387)
(0.00577076 -0.0172965 1.43664)
(0.00205881 -0.0185633 1.4733)
(-0.00205883 -0.0185633 1.4733)
(-0.00577079 -0.0172965 1.43664)
(-0.00838317 -0.0150161 1.36387)
(-0.00954267 -0.0121596 1.25663)
(-0.00911975 -0.00911974 1.11711)
(0.00503654 0.00503654 1.10828)
(0.00532505 0.00671704 1.25012)
(0.00471051 0.00830967 1.3602)
(0.00325933 0.0095935 1.43552)
(0.00116608 0.0103113 1.47367)
(-0.00116613 0.0103113 1.47367)
(-0.00325939 0.00959352 1.43552)
(-0.00471057 0.00830969 1.3602)
(-0.0053251 0.00671705 1.25012)
(-0.00503657 0.00503656 1.10828)
(0.00671704 0.00532506 1.25012)
(0.00730222 0.00730223 1.42731)
(0.006589 0.00921804 1.55531)
(0.00460073 0.0107597 1.63915)
(0.00165144 0.0116206 1.68069)
(-0.00165149 0.0116206 1.68069)
(-0.00460078 0.0107598 1.63915)
(-0.00658905 0.00921806 1.55531)
(-0.00730226 0.00730225 1.42731)
(-0.00671706 0.00532508 1.25012)
(0.00830965 0.00471053 1.3602)
(0.00921803 0.00658901 1.55531)
(0.00842521 0.00842521 1.69468)
(0.0059158 0.00989328 1.78453)
(0.00212824 0.0107106 1.82856)
(-0.00212828 0.0107106 1.82856)
(-0.00591585 0.00989329 1.78453)
(-0.00842526 0.00842523 1.69468)
(-0.00921808 0.00658903 1.55531)
(-0.0083097 0.00471054 1.3602)
(0.00959348 0.00325935 1.43552)
(0.0107597 0.00460074 1.63915)
(0.00989327 0.00591581 1.78453)
(0.00696445 0.00696445 1.87776)
(0.00250831 0.00754754 1.92322)
(-0.00250835 0.00754754 1.92322)
(-0.00696449 0.00696446 1.87776)
(-0.00989331 0.00591582 1.78453)
(-0.0107598 0.00460076 1.63915)
(-0.00959354 0.00325936 1.43552)
(0.0103113 0.00116609 1.47367)
(0.0116206 0.00165145 1.68069)
(0.0107106 0.00212824 1.82856)
(0.00754753 0.0025083 1.92322)
(0.00271957 0.00271956 1.96928)
(-0.00271961 0.00271956 1.96928)
(-0.00754757 0.00250831 1.92322)
(-0.0107106 0.00212825 1.82856)
(-0.0116206 0.00165146 1.68069)
(-0.0103113 0.0011661 1.47367)
(0.0103113 -0.00116612 1.47367)
(0.0116206 -0.00165148 1.68069)
(0.0107106 -0.00212828 1.82856)
(0.00754753 -0.00250835 1.92322)
(0.00271957 -0.00271961 1.96928)
(-0.0027196 -0.0027196 1.96928)
(-0.00754756 -0.00250834 1.92322)
(-0.0107106 -0.00212827 1.82856)
(-0.0116206 -0.00165147 1.68069)
(-0.0103113 -0.0011661 1.47367)
(0.0095935 -0.00325938 1.43552)
(0.0107597 -0.00460077 1.63915)
(0.00989326 -0.00591584 1.78453)
(0.00696445 -0.00696449 1.87776)
(0.00250831 -0.00754757 1.92322)
(-0.00250834 -0.00754756 1.92322)
(-0.00696447 -0.00696448 1.87776)
(-0.0098933 -0.00591583 1.78453)
(-0.0107598 -0.00460076 1.63915)
(-0.00959354 -0.00325936 1.43552)
(0.00830966 -0.00471056 1.3602)
(0.00921803 -0.00658904 1.55531)
(0.0084252 -0.00842524 1.69468)
(0.0059158 -0.00989329 1.78453)
(0.00212825 -0.0107106 1.82856)
(-0.00212827 -0.0107106 1.82856)
(-0.00591582 -0.00989329 1.78453)
(-0.00842524 -0.00842524 1.69468)
(-0.00921807 -0.00658903 1.55531)
(-0.0083097 -0.00471055 1.3602)
(0.00671703 -0.00532507 1.25012)
(0.00730223 -0.00730225 1.42731)
(0.00658901 -0.00921805 1.55531)
(0.00460074 -0.0107597 1.63915)
(0.00165145 -0.0116206 1.68069)
(-0.00165147 -0.0116206 1.68069)
(-0.00460076 -0.0107598 1.63915)
(-0.00658904 -0.00921806 1.55531)
(-0.00730226 -0.00730226 1.42731)
(-0.00671707 -0.00532509 1.25012)
(0.00503653 -0.00503654 1.10828)
(0.00532505 -0.00671704 1.25012)
(0.00471053 -0.00830967 1.3602)
(0.00325935 -0.0095935 1.43552)
(0.00116609 -0.0103113 1.47367)
(-0.00116611 -0.0103113 1.47367)
(-0.00325937 -0.00959352 1.43552)
(-0.00471056 -0.00830969 1.3602)
(-0.00532509 -0.00671706 1.25012)
(-0.00503657 -0.00503657 1.10828)
(0.00279516 0.00279516 1.10386)
(0.00296687 0.00373866 1.24689)
(0.00263716 0.00463935 1.35849)
(0.0018317 0.0053691 1.43519)
(0.000656676 0.00577848 1.47416)
(-0.000656723 0.00577849 1.47416)
(-0.00183175 0.00536911 1.43519)
(-0.00263721 0.00463936 1.35849)
(-0.0029669 0.00373867 1.24689)
(-0.00279516 0.00279516 1.10386)
(0.00373866 0.00296688 1.24689)
(0.00408738 0.00408739 1.4264)
(0.0037107 0.005183 1.5571)
(0.00260328 0.00607101 1.64331)
(0.000936855 0.00656924 1.68624)
(-0.0009369 0.00656924 1.68624)
(-0.00260333 0.00607102 1.64331)
(-0.00371074 0.00518301 1.5571)
(-0.00408741 0.0040874 1.4264)
(-0.00373867 0.00296689 1.24689)
(0.00463934 0.00263718 1.35849)
(0.00518299 0.00371071 1.5571)
(0.0047716 0.00477162 1.70041)
(0.00336927 0.00562764 1.79368)
(0.00121581 0.00610713 1.83967)
(-0.00121585 0.00610713 1.83967)
(-0.00336932 0.00562765 1.79368)
(-0.00477165 0.00477162 1.70041)
(-0.00518302 0.00371072 1.5571)
(-0.00463937 0.00263718 1.35849)
(0.00536909 0.00183172 1.43519)
(0.006071 0.0026033 1.64331)
(0.00562763 0.00336929 1.79368)
(0.00398661 0.00398663 1.89117)
(0.00144071 0.00433228 1.93908)
(-0.00144076 0.00433227 1.93908)
(-0.00398665 0.00398661 1.89117)
(-0.00562766 0.00336928 1.79368)
(-0.00607103 0.0026033 1.64331)
(-0.00536912 0.00183172 1.43519)
(0.00577847 0.000656693 1.47416)
(0.00656922 0.000936873 1.68624)
(0.00610711 0.00121582 1.83967)
(0.00433226 0.00144072 1.93908)
(0.00156664 0.00156665 1.98787)
(-0.0015667 0.00156665 1.98787)
(-0.00433231 0.00144071 1.93908)
(-0.00610714 0.00121582 1.83967)
(-0.00656925 0.000936871 1.68624)
(-0.00577851 0.000656695 1.47416)
(0.00577848 -0.000656708 1.47416)
(0.00656922 -0.000936889 1.68624)
(0.0061071 -0.00121585 1.83967)
(0.00433226 -0.00144075 1.93908)
(0.00156664 -0.00156669 1.98787)
(-0.0015667 -0.00156669 1.98787)
(-0.00433231 -0.00144074 1.93908)
(-0.00610714 -0.00121584 1.83967)
(-0.00656925 -0.000936884 1.68624)
(-0.0057785 -0.0006567 1.47416)
(0.0053691 -0.00183174 1.43519)
(0.00607099 -0.00260332 1.64331)
(0.00562762 -0.00336931 1.79368)
(0.00398661 -0.00398665 1.89117)
(0.00144071 -0.0043323 1.93908)
(-0.00144075 -0.0043323 1.93908)
(-0.00398665 -0.00398664 1.89117)
(-0.00562765 -0.00336929 1.79368)
(-0.00607102 -0.00260331 1.64331)
(-0.00536912 -0.00183172 1.43519)
(0.00463935 -0.0026372 1.35849)
(0.00518299 -0.00371074 1.5571)
(0.0047716 -0.00477164 1.70041)
(0.00336927 -0.00562766 1.79368)
(0.00121581 -0.00610714 1.83967)
(-0.00121585 -0.00610713 1.83967)
(-0.0033693 -0.00562765 1.79368)
(-0.00477163 -0.00477162 1.70041)
(-0.00518301 -0.00371072 1.5571)
(-0.00463937 -0.00263719 1.35849)
(0.00373865 -0.00296689 1.24689)
(0.00408738 -0.00408741 1.4264)
(0.00371071 -0.00518302 1.5571)
(0.00260329 -0.00607102 1.64331)
(0.000936864 -0.00656925 1.68624)
(-0.000936889 -0.00656924 1.68624)
(-0.00260331 -0.00607101 1.64331)
(-0.00371073 -0.00518301 1.5571)
(-0.0040874 -0.0040874 1.4264)
(-0.00373868 -0.00296689 1.24689)
(0.00279515 -0.00279516 1.10386)
(0.00296687 -0.00373866 1.24689)
(0.00263717 -0.00463936 1.35849)
(0.00183171 -0.00536911 1.43519)
(0.000656687 -0.00577849 1.47416)
(-0.000656704 -0.00577849 1.47416)
(-0.00183173 -0.0053691 1.43519)
(-0.0026372 -0.00463936 1.35849)
(-0.0029669 -0.00373867 1.24689)
(-0.00279517 -0.00279518 1.10386)
(0.00159768 0.00159768 1.10116)
(0.00169959 0.00213552 1.24487)
(0.00151313 0.00264979 1.35733)
(0.00105238 0.0030675 1.43483)
(0.000377584 0.00330224 1.47427)
(-0.000377611 0.00330224 1.47427)
(-0.00105241 0.0030675 1.43483)
(-0.00151314 0.0026498 1.35733)
(-0.0016996 0.00213552 1.24487)
(-0.00159767 0.00159767 1.10117)
(0.00213553 0.0016996 1.24487)
(0.0023402 0.00234021 1.42569)
(0.00212939 0.00296892 1.55794)
(0.00149688 0.0034805 1.64552)
(0.000539316 0.0037683 1.68925)
(-0.00053934 0.0037683 1.68925)
(-0.00149691 0.00348051 1.64552)
(-0.00212941 0.00296893 1.55794)
(-0.0023402 0.00234021 1.42569)
(-0.00213552 0.0016996 1.24487)
(0.00264979 0.00151314 1.35733)
(0.00296891 0.0021294 1.55794)
(0.00274176 0.00274178 1.70352)
(0.00194114 0.00323846 1.79876)
(0.000701538 0.00351765 1.84592)
(-0.000701552 0.00351765 1.84592)
(-0.00194116 0.00323846 1.79876)
(-0.00274179 0.00274178 1.70352)
(-0.00296893 0.00212941 1.55794)
(-0.0026498 0.00151313 1.35733)
(0.0030675 0.0010524 1.43483)
(0.00348049 0.0014969 1.64552)
(0.00323844 0.00194116 1.79876)
(0.0023014 0.00230143 1.89875)
(0.000833195 0.00250398 1.94811)
(-0.00083322 0.00250397 1.94811)
(-0.00230143 0.00230141 1.89875)
(-0.00323846 0.00194115 1.79876)
(-0.00348051 0.0014969 1.64552)
(-0.00306751 0.0010524 1.43483)
(0.00330224 0.000377603 1.47427)
(0.00376829 0.000539335 1.68925)
(0.00351763 0.000701551 1.84592)
(0.00250396 0.000833212 1.94811)
(0.000907249 0.00090727 1.99852)
(-0.000907289 0.000907266 1.99852)
(-0.00250399 0.000833201 1.94811)
(-0.00351765 0.000701534 1.84592)
(-0.0037683 0.000539319 1.68925)
(-0.00330226 0.000377589 1.47427)
(0.00330225 -0.000377598 1.47427)
(0.00376829 -0.000539334 1.68925)
(0.00351763 -0.00070155 1.84592)
(0.00250396 -0.000833215 1.94811)
(0.000907249 -0.000907277 1.99852)
(-0.00090729 -0.000907276 1.99852)
(-0.00250399 -0.000833214 1.94811)
(-0.00351765 -0.000701553 1.84592)
(-0.0037683 -0.000539339 1.68925)
(-0.00330226 -0.000377607 1.47427)
(0.00306751 -0.00105241 1.43483)
(0.00348049 -0.00149691 1.64552)
(0.00323844 -0.00194117 1.79876)
(0.0023014 -0.00230143 1.89875)
(0.000833189 -0.00250399 1.94811)
(-0.000833225 -0.00250399 1.94811)
(-0.00230143 -0.00230142 1.89875)
(-0.00323847 -0.00194116 1.79876)
(-0.00348051 -0.0014969 1.64552)
(-0.00306751 -0.0010524 1.43483)
(0.0026498 -0.00151316 1.35733)
(0.00296892 -0.00212942 1.55794)
(0.00274176 -0.00274179 1.70352)
(0.00194114 -0.00323847 1.79876)
(0.000701526 -0.00351765 1.84592)
(-0.00070156 -0.00351765 1.84592)
(-0.00194116 -0.00323846 1.79876)
(-0.00274178 -0.00274178 1.70352)
(-0.00296893 -0.0021294 1.55794)
(-0.00264981 -0.00151314 1.35733)
(0.00213553 -0.00169962 1.24487)
(0.0023402 -0.00234022 1.42569)
(0.0021294 -0.00296894 1.55794)
(0.00149688 -0.00348051 1.64552)
(0.000539312 -0.00376831 1.68925)
(-0.000539344 -0.00376831 1.68925)
(-0.0014969 -0.00348051 1.64552)
(-0.00212941 -0.00296893 1.55794)
(-0.00234021 -0.00234021 1.42569)
(-0.00213553 -0.0016996 1.24487)
(0.00159768 -0.00159768 1.10116)
(0.0016996 -0.00213554 1.24487)
(0.00151313 -0.00264981 1.35733)
(0.00105239 -0.00306751 1.43483)
(0.000377586 -0.00330225 1.47427)
(-0.000377609 -0.00330225 1.47427)
(-0.0010524 -0.0030675 1.43483)
(-0.00151314 -0.0026498 1.35733)
(-0.0016996 -0.00213553 1.24487)
(-0.00159768 -0.00159768 1.10117)
(0.000919373 0.000919371 1.09967)
(0.000978465 0.0012295 1.24375)
(0.000871952 0.00152646 1.3567)
(0.000606973 0.0017679 1.43465)
(0.000217891 0.00190368 1.47437)
(-0.000217882 0.00190367 1.47437)
(-0.000606959 0.00176789 1.43465)
(-0.000871936 0.00152645 1.3567)
(-0.000978451 0.00122949 1.24375)
(-0.000919359 0.000919362 1.09967)
(0.0012295 0.00097847 1.24375)
(0.00134844 0.00134845 1.42531)
(0.00122855 0.00171229 1.55844)
(0.000864616 0.00200888 1.64681)
(0.000311733 0.00217595 1.69101)
(-0.000311721 0.00217595 1.69101)
(-0.000864607 0.00200888 1.64681)
(-0.00122853 0.00171229 1.55844)
(-0.00134843 0.00134844 1.42531)
(-0.00122948 0.000978454 1.24375)
(0.00152646 0.000871962 1.3567)
(0.00171229 0.00122856 1.55844)
(0.00158389 0.0015839 1.70532)
(0.00112303 0.00187287 1.80171)
(0.000406224 0.0020356 1.84954)
(-0.000406215 0.0020356 1.84954)
(-0.00112303 0.00187286 1.80171)
(-0.00158388 0.00158389 1.70532)
(-0.00171228 0.00122855 1.55844)
(-0.00152645 0.000871948 1.3567)
(0.0017679 0.000606984 1.43465)