/*--------------------------------*- C++ -*----------------------------------*\
| =========                 |                                                 |
| \\      /  F ield         | OpenFOAM: The Open Source CFD Toolbox           |
|  \\    /   O peration     | Version:  2412                                  |
|   \\  /    A nd           | Website:  www.openfoam.com                      |
|    \\/     M anipulation  |                                                 |
\*---------------------------------------------------------------------------*/
FoamFile
{
    version     2.0;
    format      ascii;
    arch        "LSB;label=32;scalar=64";
    class       surfaceScalarField;
    location    "0.2";
    object      phi;
}
// * * * * * * * * * * * * * * * * * * * * * * * * * * * * * * * * * * * * * //

dimensions      [0 3 -1 0 0 0 0];

oriented        oriented;

internalField   nonuniform List<scalar> 
43700
(
4.8896e-07
4.88946e-07
0.00070521
-5.80087e-07
-5.80069e-07
3.95358e-07
4.8443e-07
0.000764275
-5.8974e-07
2.73277e-07
4.78493e-07
0.000809356
-5.6645e-07
1.39053e-07
4.70059e-07
0.000839786
-5.53355e-07
1.42369e-11
4.64565e-07
0.000855114
-5.468e-07
-1.39024e-07
4.64559e-07
0.000855114
-5.46796e-07
-2.73245e-07
4.7004e-07
0.000839786
-5.53343e-07
-3.95328e-07
4.78461e-07
0.000809356
-5.66425e-07
-4.88903e-07
4.84388e-07
0.000764275
-5.89692e-07
4.88917e-07
0.00070521
-5.80121e-07
-5.80017e-07
4.84449e-07
3.9534e-07
0.000764275
-5.89757e-07
3.77582e-07
3.77559e-07
0.000818978
2.59796e-07
3.72156e-07
0.00086076
1.3251e-07
3.66231e-07
0.000888976
7.72845e-12
3.6244e-07
0.000903193
-1.32496e-07
3.62433e-07
0.000903193
-2.59788e-07
3.66212e-07
0.000888976
-3.77581e-07
3.72125e-07
0.00086076
-4.84438e-07
3.77521e-07
0.000818978
3.95313e-07
0.000764275
-5.89739e-07
4.78512e-07
2.73256e-07
0.000809356
-5.66464e-07
3.72182e-07
2.59771e-07
0.00086076
2.5525e-07
2.55223e-07
0.000900044
1.29939e-07
2.51102e-07
0.000926584
2.96731e-12
2.48632e-07
0.000939961
-1.29935e-07
2.48628e-07
0.000939961
-2.55253e-07
2.5109e-07
0.000926584
-3.72193e-07
2.55206e-07
0.000900044
-4.78506e-07
2.59751e-07
0.00086076
2.73233e-07
0.000809356
-5.6643e-07
4.70079e-07
1.39028e-07
0.000839786
-5.5337e-07
3.66258e-07
1.32482e-07
0.000888976
2.51129e-07
1.29911e-07
0.000926584
1.27757e-07
1.27729e-07
0.000952001
-1.24897e-12
1.26475e-07
0.000964813
-1.27761e-07
1.26471e-07
0.000964813
-2.51136e-07
1.27719e-07
0.000952001
-3.6627e-07
1.29896e-07
0.000926584
-4.7007e-07
1.32465e-07
0.000888976
1.39012e-07
0.000839786
-5.53335e-07
4.64587e-07
-1.42809e-11
0.000855114
-5.46815e-07
3.6247e-07
-2.07193e-11
0.000903193
2.48659e-07
-2.56316e-11
0.000939961
1.26504e-07
-3.02194e-11
0.000964813
-5.26244e-12
-3.44733e-11
0.000977342
-1.26515e-07
-3.78459e-11
0.000977342
-2.48672e-07
-4.00923e-11
0.000964813
-3.62485e-07
-4.05239e-11
0.000939961
-4.64582e-07
-3.83602e-11
0.000903193
-3.04058e-11
0.000855114
-5.46778e-07
4.64584e-07
-1.39057e-07
0.000855114
-5.46813e-07
3.62467e-07
-1.32523e-07
0.000903193
2.48656e-07
-1.29961e-07
0.000939961
1.265e-07
-1.27789e-07
0.000964813
-8.70435e-12
-1.26543e-07
0.000977342
-1.26518e-07
-1.26547e-07
0.000977342
-2.48674e-07
-1.27798e-07
0.000964813
-3.62485e-07
-1.29976e-07
0.000939961
-4.64585e-07
-1.32542e-07
0.000903193
-1.39075e-07
0.000855114
-5.4678e-07
4.7007e-07
-2.73285e-07
0.000839786
-5.53363e-07
3.66249e-07
-2.59811e-07
0.000888976
2.51119e-07
-2.55274e-07
0.000926584
1.27746e-07
-2.51162e-07
0.000952001
-1.17511e-11
-2.487e-07
0.000964813
-1.2777e-07
-2.48703e-07
0.000964813
-2.51142e-07
-2.5117e-07
0.000952001
-3.66272e-07
-2.55288e-07
0.000926584
-4.70077e-07
-2.5983e-07
0.000888976
-2.73305e-07
0.000839786
-5.53337e-07
4.78496e-07
-3.95371e-07
0.000809356
-5.6645e-07
3.72165e-07
-3.77599e-07
0.00086076
2.55232e-07
-3.72208e-07
0.000900044
1.29921e-07
-3.66293e-07
0.000926584
-1.40869e-11
-3.62512e-07
0.000939961
-1.2995e-07
-3.62514e-07
0.000939961
-2.55261e-07
-3.663e-07
0.000926584
-3.72194e-07
-3.72221e-07
0.000900044
-4.7851e-07
-3.77618e-07
0.00086076
-3.95393e-07
0.000809356
-5.66435e-07
4.84419e-07
-4.88928e-07
0.000764275
-5.89733e-07
3.77556e-07
-4.84451e-07
0.000818978
2.59771e-07
-4.78523e-07
0.00086076
1.32485e-07
-4.70098e-07
0.000888976
-1.56194e-11
-4.64611e-07
0.000903193
-1.32517e-07
-4.64612e-07
0.000903193
-2.59805e-07
-4.70103e-07
0.000888976
-3.77593e-07
-4.78534e-07
0.00086076
-4.84444e-07
-4.84465e-07
0.000818978
-4.88954e-07
0.000764275
-5.8973e-07
4.88891e-07
0.00070521
-5.80079e-07
-5.80052e-07
3.95331e-07
0.000764275
-5.89756e-07
2.73251e-07
0.000809356
-5.66467e-07
1.39027e-07
0.000839786
-5.53376e-07
-1.44493e-11
0.000855114
-5.46824e-07
-1.39057e-07
0.000855114
-5.46824e-07
-2.73284e-07
0.000839786
-5.53376e-07
-3.9537e-07
0.000809356
-5.66467e-07
-4.88933e-07
0.000764275
-5.89757e-07
0.00070521
-5.80056e-07
-5.80079e-07
1.37212e-06
1.37209e-06
0.000705726
-1.63013e-06
-1.6301e-06
1.08515e-06
1.3482e-06
0.000764832
-1.61841e-06
7.47806e-07
1.33729e-06
0.000809946
-1.59046e-06
3.81031e-07
1.32408e-06
0.000840399
-1.57035e-06
2.30007e-11
1.31535e-06
0.000855739
-1.55875e-06
-3.80985e-07
1.31535e-06
0.000855739
-1.55875e-06
-7.47758e-07
1.32408e-06
0.000840399
-1.57035e-06
-1.08509e-06
1.33729e-06
0.000809946
-1.59046e-06
-1.37201e-06
1.34818e-06
0.000764832
-1.6184e-06
1.372e-06
0.000705726
-1.63005e-06
-1.63005e-06
1.34823e-06
1.08511e-06
0.000764832
-1.61844e-06
1.05026e-06
1.05023e-06
0.000819574
7.21175e-07
1.03965e-06
0.000861386
3.6733e-07
1.03039e-06
0.000889623
2.27492e-11
1.02464e-06
0.000903851
-3.67283e-07
1.02464e-06
0.000903851
-7.21124e-07
1.03038e-06
0.000889623
-1.0502e-06
1.03964e-06
0.000861386
-1.34815e-06
1.05021e-06
0.000819574
1.08508e-06
0.000764832
-1.61834e-06
1.33733e-06
7.4777e-07
0.000809946
-1.5905e-06
1.03968e-06
7.21134e-07
0.000861386
7.11848e-07
7.11804e-07
0.000900699
3.61879e-07
7.05129e-07
0.000927259
2.20385e-11
7.01415e-07
0.000940646
-3.61833e-07
7.0141e-07
0.000940646
-7.11797e-07
7.05115e-07
0.000927259
-1.03962e-06
7.11779e-07
0.000900699
-1.33725e-06
7.21092e-07
0.000861386
7.47717e-07
0.000809946
-1.5904e-06
1.32411e-06
3.80992e-07
0.000840399
-1.57038e-06
1.03042e-06
3.67283e-07
0.000889623
7.05173e-07
3.61829e-07
0.000927259
3.58211e-07
3.58158e-07
0.000952695
1.75179e-11
3.56245e-07
0.000965516
-3.58174e-07
3.56239e-07
0.000965516
-7.05133e-07
3.5814e-07
0.000952695
-1.03038e-06
3.61797e-07
0.000927259
-1.32404e-06
3.67233e-07
0.000889623
3.80928e-07
0.000840399
-1.57031e-06
1.31539e-06
-1.95634e-11
0.000855739
-1.55878e-06
1.02468e-06
-2.94253e-11
0.000903851
7.0146e-07
-3.62482e-11
0.000940646
3.56298e-07
-4.29377e-11
0.000965516
1.12081e-11
-4.99237e-11
0.000978054
-3.56274e-07
-5.6499e-11
0.000978054
-7.01434e-07
-6.31905e-11
0.000965516
-1.02464e-06
-7.06403e-11
0.000940646
-1.31533e-06
-8.10309e-11
0.000903851
-8.477e-11
0.000855739
-1.55873e-06
1.31538e-06
-3.8103e-07
0.000855739
-1.55878e-06
1.02467e-06
-3.67342e-07
0.000903851
7.01455e-07
-3.61901e-07
0.000940646
3.56292e-07
-3.58243e-07
0.000965516
4.41493e-12
-3.56343e-07
0.000978054
-3.56283e-07
-3.5635e-07
0.000978054
-7.01445e-07
-3.58264e-07
0.000965516
-1.02466e-06
-3.61935e-07
0.000940646
-1.31535e-06
-3.67391e-07
0.000903851
-3.81092e-07
0.000855739
-1.55875e-06
1.3241e-06
-7.47807e-07
0.000840399
-1.57038e-06
1.03041e-06
-7.21191e-07
0.000889623
7.05159e-07
-7.11876e-07
0.000927259
3.58194e-07
-7.05213e-07
0.000952695
-2.24259e-12
-7.0151e-07
0.000965516
-3.58198e-07
-7.01516e-07
0.000965516
-7.05163e-07
-7.0523e-07
0.000952695
-1.03042e-06
-7.11907e-07
0.000927259
-1.32409e-06
-7.21237e-07
0.000889623
-7.47864e-07
0.000840399
-1.57036e-06
1.33731e-06
-1.08515e-06
0.000809946
-1.59048e-06
1.03966e-06
-1.05028e-06
0.000861386
7.11825e-07
-1.03972e-06
0.000900699
3.61854e-07
-1.03047e-06
0.000927259
-7.89152e-12
-1.02473e-06
0.000940646
-3.6187e-07
-1.02473e-06
0.000940646
-7.11842e-07
-1.03048e-06
0.000927259
-1.03968e-06
-1.03974e-06
0.000900699
-1.33731e-06
-1.05032e-06
0.000861386
-1.0852e-06
0.000809946
-1.59048e-06
1.3482e-06
-1.37209e-06
0.000764832
-1.61841e-06
1.05023e-06
-1.34824e-06
0.000819574
7.21142e-07
-1.33735e-06
0.000861386
3.67296e-07
-1.32414e-06
0.000889623
-1.29752e-11
-1.31543e-06
0.000903851
-3.67323e-07
-1.31543e-06
0.000903851
-7.21172e-07
-1.32415e-06
0.000889623
-1.05026e-06
-1.33737e-06
0.000861386
-1.34822e-06
-1.34827e-06
0.000819574
-1.37215e-06
0.000764832
-1.61842e-06
1.37204e-06
0.000705726
-1.63013e-06
-1.63009e-06
1.0851e-06
0.000764832
-1.61845e-06
7.47764e-07
0.000809946
-1.59051e-06
3.80993e-07
0.000840399
-1.57041e-06
-1.42332e-11
0.000855739
-1.55881e-06
-3.81022e-07
0.000855739
-1.55882e-06
-7.47797e-07
0.000840399
-1.57041e-06
-1.08514e-06
0.000809946
-1.59052e-06
-1.37209e-06
0.000764832
-1.61846e-06
0.000705726
-1.63012e-06
-1.63016e-06
2.24853e-06
2.2485e-06
0.000706584
-2.67743e-06
-2.67739e-06
1.77058e-06
2.2319e-06
0.000765761
-2.68364e-06
1.21986e-06
2.22754e-06
0.000810931
-2.66132e-06
6.21498e-07
2.21909e-06
0.00084142
-2.64221e-06
6.47456e-12
2.21266e-06
0.000856779
-2.63128e-06
-6.21485e-07
2.21266e-06
0.000856779
-2.63128e-06
-1.21985e-06
2.21909e-06
0.00084142
-2.64222e-06
-1.77057e-06
2.22754e-06
0.000810931
-2.66132e-06
-2.24847e-06
2.23189e-06
0.000765761
-2.68364e-06
2.24844e-06
0.000706584
-2.67739e-06
-2.67738e-06
2.23194e-06
1.77055e-06
0.000765761
-2.68368e-06
1.7337e-06
1.73365e-06
0.000820571
1.18785e-06
1.72604e-06
0.000862433
6.04153e-07
1.72117e-06
0.000890705
2.11543e-12
1.71794e-06
0.00090495
-6.04148e-07
1.71794e-06
0.00090495
-1.18785e-06
1.72116e-06
0.000890705
-1.73368e-06
1.72602e-06
0.000862433
-2.2319e-06
1.73363e-06
0.000820571
1.7705e-06
0.000765761
-2.68362e-06
2.22758e-06
1.21983e-06
0.000810931
-2.66136e-06
1.72608e-06
1.18781e-06
0.000862433
1.17852e-06
1.17848e-06
0.000901794
5.98004e-07
1.17438e-06
0.000928387
-1.56998e-12
1.17245e-06
0.000941789
-5.98006e-07
1.17244e-06
0.000941789
-1.17852e-06
1.17437e-06
0.000928387
-1.72607e-06
1.17846e-06
0.000901794
-2.22755e-06
1.18779e-06
0.000862433
1.21978e-06
0.000810931
-2.66131e-06
2.21913e-06
6.2146e-07
0.00084142
-2.64225e-06
1.72121e-06
6.04112e-07
0.000890705
1.17442e-06
5.97962e-07
0.000928387
5.95385e-07
5.95342e-07
0.000953853
-4.80007e-12
5.94284e-07
0.00096669
-5.95393e-07
5.94281e-07
0.00096669
-1.17443e-06
5.95333e-07
0.000953853
-1.72122e-06
5.97947e-07
0.000928387
-2.21911e-06
6.04087e-07
0.000890705
6.21421e-07
0.00084142
-2.64222e-06
2.2127e-06
-3.19103e-11
0.000856779
-2.63131e-06
1.71798e-06
-3.86825e-11
0.00090495
1.17249e-06
-4.36009e-11
0.000941789
5.94327e-07
-4.85918e-11
0.00096669
-8.40472e-12
-5.3084e-11
0.000979243
-5.94343e-07
-5.61795e-11
0.000979243
-1.1725e-06
-5.83683e-11
0.00096669
-1.718e-06
-6.05932e-11
0.000941789
-2.21269e-06
-6.50522e-11
0.00090495
-6.83943e-11
0.000856779
-2.63129e-06
2.2127e-06
-6.21524e-07
0.000856779
-2.63131e-06
1.71798e-06
-6.04189e-07
0.00090495
1.17249e-06
-5.9805e-07
0.000941789
5.94324e-07
-5.95439e-07
0.00096669
-1.15675e-11
-5.94389e-07
0.000979243
-5.94347e-07
-5.94392e-07
0.000979243
-1.17251e-06
-5.95448e-07
0.00096669
-1.718e-06
-5.98067e-07
0.000941789
-2.2127e-06
-6.04215e-07
0.00090495
-6.21558e-07
0.000856779
-2.6313e-06
2.21913e-06
-1.21989e-06
0.00084142
-2.64225e-06
1.72121e-06
-1.18789e-06
0.000890705
1.17441e-06
-1.17856e-06
0.000928387
5.95376e-07
-1.17448e-06
0.000953853
-1.42288e-11
-1.17255e-06
0.00096669
-5.95404e-07
-1.17255e-06
0.00096669
-1.17444e-06
-1.17448e-06
0.000953853
-1.72123e-06
-1.17858e-06
0.000928387
-2.21913e-06
-1.18791e-06
0.000890705
-1.21992e-06
0.00084142
-2.64224e-06
2.22757e-06
-1.77061e-06
0.000810931
-2.66136e-06
1.72607e-06
-1.73373e-06
0.000862433
1.17851e-06
-1.72612e-06
0.000901794
5.9799e-07
-1.72127e-06
0.000928387
-1.62652e-11
-1.71804e-06
0.000941789
-5.98023e-07
-1.71805e-06
0.000941789
-1.17854e-06
-1.72127e-06
0.000928387
-1.7261e-06
-1.72614e-06
0.000901794
-2.22759e-06
-1.73375e-06
0.000862433
-1.77064e-06
0.000810931
-2.66135e-06
2.23192e-06
-2.24851e-06
0.000765761
-2.68366e-06
1.73367e-06
-2.23196e-06
0.000820571
1.18783e-06
-2.22761e-06
0.000862433
6.04132e-07
-2.21917e-06
0.000890705
-1.91606e-11
-2.21274e-06
0.00090495
-6.0417e-07
-2.21274e-06
0.00090495
-1.18787e-06
-2.21917e-06
0.000890705
-1.73371e-06
-2.22762e-06
0.000862433
-2.23194e-06
-2.23198e-06
0.000820571
-2.24855e-06
0.000765761
-2.68367e-06
2.24846e-06
0.000706584
-2.67743e-06
-2.67739e-06
1.77055e-06
0.000765761
-2.6837e-06
1.21983e-06
0.000810931
-2.66138e-06
6.21469e-07
0.00084142
-2.64228e-06
-2.14159e-11
0.000856779
-2.63134e-06
-6.21512e-07
0.000856779
-2.63134e-06
-1.21988e-06
0.00084142
-2.64228e-06
-1.7706e-06
0.000810931
-2.66138e-06
-2.24851e-06
0.000765761
-2.6837e-06
0.000706584
-2.67741e-06
-2.67745e-06
2.94937e-06
2.94936e-06
0.000707716
-3.51564e-06
-3.51562e-06
2.31826e-06
2.94474e-06
0.00076699
-3.5419e-06
1.5964e-06
2.9433e-06
0.000812231
-3.52222e-06
8.13046e-07
2.93753e-06
0.00084277
-3.50386e-06
-5.50561e-12
2.93273e-06
0.000858153
-3.494e-06
-8.13056e-07
2.93273e-06
0.000858153
-3.494e-06
-1.59641e-06
2.93753e-06
0.00084277
-3.50387e-06
-2.31827e-06
2.9433e-06
0.000812231
-3.52223e-06
-2.94935e-06
2.94474e-06
0.00076699
-3.54191e-06
2.9493e-06
0.000707716
-3.51563e-06
-3.51561e-06
2.94476e-06
2.31824e-06
0.00076699
-3.54192e-06
2.28614e-06
2.28612e-06
0.000821888
1.56497e-06
2.2798e-06
0.000863818
7.95374e-07
2.27701e-06
0.000892135
-1.20647e-11
2.27513e-06
0.000906403
-7.95397e-07
2.27513e-06
0.000906403
-1.56499e-06
2.27701e-06
0.000892135
-2.28615e-06
2.2798e-06
0.000863818
-2.94476e-06
2.28611e-06
0.000821888
2.31821e-06
0.00076699
-3.54191e-06
2.94331e-06
1.59639e-06
0.000812231
-3.52224e-06
2.27981e-06
1.56496e-06
0.000863818
1.55573e-06
1.55572e-06
0.000903242
7.89007e-07
1.55283e-06
0.000929877
-1.57678e-11
1.55174e-06
0.000943301
-7.89038e-07
1.55174e-06
0.000943301
-1.55576e-06
1.55283e-06
0.000929877
-2.27983e-06
1.55572e-06
0.000903242
-2.94332e-06
1.56495e-06
0.000863818
1.59636e-06
0.000812231
-3.52223e-06
2.93754e-06
8.13033e-07
0.00084277
-3.50388e-06
2.27702e-06
7.95365e-07
0.000892135
1.55284e-06
7.89e-07
0.000929877
7.86917e-07
7.86909e-07
0.000955384
-1.75774e-11
7.86244e-07
0.000968242
-7.86951e-07
7.86244e-07
0.000968242
-1.55287e-06
7.86908e-07
0.000955384
-2.27705e-06
7.88998e-07
0.000929877
-2.93755e-06
7.95358e-07
0.000892135
8.13015e-07
0.00084277
-3.50388e-06
2.93274e-06
-1.68618e-11
0.000858153
-3.49401e-06
2.27514e-06
-1.97151e-11
0.000906403
1.55174e-06
-2.20645e-11
0.000943301
7.86253e-07
-2.44561e-11
0.000968242
-1.84141e-11
-2.60255e-11
0.000980815
-7.86289e-07
-2.60956e-11
0.000980815
-1.55178e-06
-2.53325e-11
0.000968242
-2.27517e-06
-2.49439e-11
0.000943301
-2.93275e-06
-2.77533e-11
0.000906403
-3.23838e-11
0.000858153
-3.49401e-06
2.93274e-06
-8.13066e-07
0.000858153
-3.49401e-06
2.27514e-06
-7.95405e-07
0.000906403
1.55174e-06
-7.89044e-07
0.000943301
7.86253e-07
-7.86958e-07
0.000968242
-1.81837e-11
-7.86297e-07
0.000980815
-7.86288e-07
-7.86297e-07
0.000980815
-1.55178e-06
-7.86959e-07
0.000968242
-2.27517e-06
-7.89048e-07
0.000943301
-2.93275e-06
-7.95413e-07
0.000906403
-8.1308e-07
0.000858153
-3.49401e-06
2.93754e-06
-1.59642e-06
0.00084277
-3.50388e-06
2.27702e-06
-1.565e-06
0.000892135
1.55284e-06
-1.55577e-06
0.000929877
7.86916e-07
-1.55288e-06
0.000955384
-1.74112e-11
-1.55179e-06
0.000968242
-7.8695e-07
-1.55179e-06
0.000968242
-1.55287e-06
-1.55288e-06
0.000955384
-2.27705e-06
-1.55577e-06
0.000929877
-2.93755e-06
-1.56501e-06
0.000892135
-1.59643e-06
0.00084277
-3.50388e-06
2.94331e-06
-2.31827e-06
0.000812231
-3.52224e-06
2.27981e-06
-2.28616e-06
0.000863818
1.55573e-06
-2.27984e-06
0.000903242
7.89006e-07
-2.27706e-06
0.000929877
-1.63847e-11
-2.27518e-06
0.000943301
-7.89039e-07
-2.27518e-06
0.000943301
-1.55576e-06
-2.27706e-06
0.000929877
-2.27984e-06
-2.27985e-06
0.000903242
-2.94332e-06
-2.28617e-06
0.000863818
-2.31829e-06
0.000812231
-3.52223e-06
2.94474e-06
-2.94935e-06
0.00076699
-3.54191e-06
2.28612e-06
-2.94477e-06
0.000821888
1.56496e-06
-2.94333e-06
0.000863818
7.95368e-07
-2.93756e-06
0.000892135
-1.71072e-11
-2.93276e-06
0.000906403
-7.95402e-07
-2.93276e-06
0.000906403
-1.565e-06
-2.93756e-06
0.000892135
-2.28616e-06
-2.94333e-06
0.000863818
-2.94476e-06
-2.94477e-06
0.000821888
-2.94938e-06
0.00076699
-3.5419e-06
2.94932e-06
0.000707716
-3.51565e-06
-3.51562e-06
2.31823e-06
0.00076699
-3.54193e-06
1.59638e-06
0.000812231
-3.52224e-06
8.13029e-07
0.00084277
-3.50389e-06
-1.90755e-11
0.000858153
-3.49402e-06
-8.13067e-07
0.000858153
-3.49402e-06
-1.59642e-06
0.00084277
-3.50389e-06
-2.31827e-06
0.000812231
-3.52224e-06
-2.94936e-06
0.00076699
-3.54192e-06
0.000707716
-3.51563e-06
-3.51565e-06
3.46225e-06
3.46224e-06
0.000709051
-4.12957e-06
-4.12956e-06
2.72028e-06
3.47317e-06
0.000768437
-4.17866e-06
1.87226e-06
3.471e-06
0.000813764
-4.15611e-06
9.53089e-07
3.46376e-06
0.000844361
-4.13556e-06
-2.19664e-12
3.45811e-06
0.000859773
-4.12512e-06
-9.53092e-07
3.45811e-06
0.000859773
-4.12512e-06
-1.87226e-06
3.46376e-06
0.000844361
-4.13556e-06
-2.72028e-06
3.471e-06
0.000813764
-4.15611e-06
-3.46221e-06
3.47316e-06
0.000768437
-4.17865e-06
3.46218e-06
0.000709051
-4.12956e-06
-4.12953e-06
3.47317e-06
2.72028e-06
0.000768437
-4.17866e-06
2.69695e-06
2.69695e-06
0.00082344
1.84556e-06
2.69015e-06
0.00086545
9.37616e-07
2.68564e-06
0.000893821
-8.97506e-12
2.68257e-06
0.000908116
-9.37633e-07
2.68257e-06
0.000908116
-1.84558e-06
2.68564e-06
0.000893821
-2.69696e-06
2.69015e-06
0.00086545
-3.47317e-06
2.69695e-06
0.00082344
2.72026e-06
0.000768437
-4.17866e-06
3.47099e-06
1.87226e-06
0.000813764
-4.15611e-06
2.69014e-06
1.84557e-06
0.00086545
1.83638e-06
1.8364e-06
0.00090495
9.31444e-07
1.83232e-06
0.000931636
-1.29603e-11
1.83023e-06
0.000945085
-9.31469e-07
1.83023e-06
0.000945085
-1.83641e-06
1.83232e-06
0.000931636
-2.69016e-06
1.8364e-06
0.00090495
-3.471e-06
1.84557e-06
0.00086545
1.87224e-06
0.000813764
-4.15612e-06
3.46375e-06
9.53095e-07
0.000844361
-4.13555e-06
2.68563e-06
9.37629e-07
0.000893821
1.83231e-06
9.3146e-07
0.000931636
9.28843e-07
9.2886e-07
0.000957191
-1.48913e-11
9.27679e-07
0.000970073
-9.28873e-07
9.27679e-07
0.000970073
-1.83234e-06
9.2886e-07
0.000957191
-2.68566e-06
9.3146e-07
0.000931636
-3.46376e-06
9.37625e-07
0.000893821
9.53084e-07
0.000844361
-4.13556e-06
3.4581e-06
6.15104e-12
0.000859773
-4.12511e-06
2.68256e-06
5.18749e-12
0.000908116
1.83021e-06
4.06501e-12
0.000945085
9.27663e-07
2.62912e-12
0.000970073
-1.52421e-11
1.94885e-12
0.000982671
-9.27693e-07
2.48583e-12
0.000982671
-1.83024e-06
3.72282e-12
0.000970073
-2.68259e-06
4.55462e-12
0.000945085
-3.45811e-06
2.03462e-12
0.000908116
-3.27729e-12
0.000859773
-4.12511e-06
3.4581e-06
-9.53083e-07
0.000859773
-4.12511e-06
2.68256e-06
-9.37618e-07
0.000908116
1.83021e-06
-9.31452e-07
0.000945085
9.27663e-07
-9.28855e-07
0.000970073
-1.42719e-11
-9.27676e-07
0.000982671
-9.27691e-07
-9.27675e-07
0.000982671
-1.83024e-06
-9.28854e-07
0.000970073
-2.68258e-06
-9.31452e-07
0.000945085
-3.45811e-06
-9.37622e-07
0.000908116
-9.53091e-07
0.000859773
-4.1251e-06
3.46374e-06
-1.87225e-06
0.000844361
-4.13555e-06
2.68563e-06
-1.84557e-06
0.000893821
1.8323e-06
-1.83639e-06
0.000931636
9.28844e-07
-1.83232e-06
0.000957191
-1.26247e-11
-1.83023e-06
0.000970073
-9.28869e-07
-1.83023e-06
0.000970073
-1.83233e-06
-1.83232e-06
0.000957191
-2.68565e-06
-1.83639e-06
0.000931636
-3.46375e-06
-1.84557e-06
0.000893821
-1.87225e-06
0.000844361
-4.13554e-06
3.47098e-06
-2.72027e-06
0.000813764
-4.15611e-06
2.69013e-06
-2.69695e-06
0.00086545
1.83638e-06
-2.69014e-06
0.00090495
9.31444e-07
-2.68564e-06
0.000931636
-1.07309e-11
-2.68257e-06
0.000945085
-9.31465e-07
-2.68257e-06
0.000945085
-1.8364e-06
-2.68564e-06
0.000931636
-2.69015e-06
-2.69014e-06
0.00090495
-3.47098e-06
-2.69695e-06
0.00086545
-2.72027e-06
0.000813764
-4.15609e-06
3.47315e-06
-3.4622e-06
0.000768437
-4.17864e-06
2.69693e-06
-3.47315e-06
0.00082344
1.84555e-06
-3.47098e-06
0.00086545
9.37611e-07
-3.46374e-06
0.000893821
-1.05323e-11
-3.4581e-06
0.000908116
-9.37632e-07
-3.4581e-06
0.000908116
-1.84558e-06
-3.46374e-06
0.000893821
-2.69695e-06
-3.47098e-06
0.00086545
-3.47315e-06
-3.47315e-06
0.00082344
-3.46221e-06
0.000768437
-4.17863e-06
3.46218e-06
0.000709051
-4.12955e-06
-4.12953e-06
2.72024e-06
0.000768437
-4.17864e-06
1.87223e-06
0.000813764
-4.1561e-06
9.53073e-07
0.000844361
-4.13554e-06
-1.22103e-11
0.000859773
-4.1251e-06
-9.53098e-07
0.000859773
-4.12509e-06
-1.87226e-06
0.000844361
-4.13554e-06
-2.72028e-06
0.000813764
-4.15609e-06
-3.46221e-06
0.000768437
-4.17863e-06
0.000709051
-4.12953e-06
-4.12954e-06
3.86347e-06
3.86347e-06
0.000710544
-4.60999e-06
-4.60998e-06
3.03561e-06
3.89062e-06
0.000770056
-4.68162e-06
2.08807e-06
3.88489e-06
0.000815479
-4.65221e-06
1.0624e-06
3.87242e-06
0.00084614
-4.62645e-06
1.03752e-11
3.86342e-06
0.000861585
-4.61338e-06
-1.06238e-06
3.86342e-06
0.000861585
-4.61338e-06
-2.08805e-06
3.87242e-06
0.00084614
-4.62645e-06
-3.03559e-06
3.88489e-06
0.000815479
-4.65221e-06
-3.86341e-06
3.8906e-06
0.000770056
-4.6816e-06
3.8634e-06
0.000710544
-4.60995e-06
-4.60995e-06
3.89061e-06
3.03562e-06
0.000770056
-4.68162e-06
3.0226e-06
3.02261e-06
0.000825176
2.06822e-06
3.0138e-06
0.000867276
1.05052e-06
3.00427e-06
0.000895706
5.48336e-12
2.99765e-06
0.000910032
-1.05051e-06
2.99765e-06
0.000910032
-2.06821e-06
3.00427e-06
0.000895706
-3.02258e-06
3.01379e-06
0.000867276
-3.89059e-06
3.02259e-06
0.000825176
3.03558e-06
0.000770056
-4.68158e-06
3.88488e-06
2.08808e-06
0.000815479
-4.65221e-06
3.01379e-06
2.06824e-06
0.000867276
2.05883e-06
2.05884e-06
0.00090686
1.0447e-06
2.05148e-06
0.000933603
1.75278e-12
2.0467e-06
0.000947081
-1.04469e-06
2.0467e-06
0.000947081
-2.05883e-06
2.05147e-06
0.000933603
-3.01378e-06
2.05884e-06
0.00090686
-3.88487e-06
2.06822e-06
0.000867276
2.08805e-06
0.000815479
-4.65218e-06
3.87241e-06
1.06241e-06
0.00084614
-4.62644e-06
3.00426e-06
1.05053e-06
0.000895706
2.05146e-06
1.04471e-06
0.000933603
1.04063e-06
1.04065e-06
0.000959213
-6.59001e-13
1.03811e-06
0.000972122
-1.04063e-06
1.03811e-06
0.000972122
-2.05146e-06
1.04064e-06
0.000959213
-3.00426e-06
1.0447e-06
0.000933603
-3.8724e-06
1.05052e-06
0.000895706
1.06239e-06
0.00084614
-4.62642e-06
3.86341e-06
2.05979e-11
0.000861585
-4.61337e-06
2.99764e-06
1.96681e-11
0.000910032
2.04669e-06
1.83028e-11
0.000947081
1.0381e-06
1.64628e-11
0.000972122
-2.21745e-12
1.49151e-11
0.000984747
-1.0381e-06
1.40353e-11
0.000984747
-2.04669e-06
1.36269e-11
0.000972122
-2.99764e-06
1.27225e-11
0.000947081
-3.86339e-06
8.89232e-12
0.000910032
2.84656e-12
0.000861585
-4.61335e-06
3.8634e-06
-1.06237e-06
0.000861585
-4.61337e-06
2.99764e-06
-1.05049e-06
0.000910032
2.04669e-06
-1.04468e-06
0.000947081
1.0381e-06
-1.04061e-06
0.000972122
-2.97531e-12
-1.03808e-06
0.000984747
-1.0381e-06
-1.03809e-06
0.000984747
-2.04669e-06
-1.04062e-06
0.000972122
-2.99764e-06
-1.04468e-06
0.000947081
-3.86339e-06
-1.0505e-06
0.000910032
-1.06239e-06
0.000861585
-4.61335e-06
3.8724e-06
-2.08804e-06
0.00084614
-4.62643e-06
3.00425e-06
-2.0682e-06
0.000895706
2.05145e-06
-2.05881e-06
0.000933603
1.04062e-06
-2.05145e-06
0.000959213
-3.11515e-12
-2.04668e-06
0.000972122
-1.04063e-06
-2.04668e-06
0.000972122
-2.05146e-06
-2.05145e-06
0.000959213
-3.00425e-06
-2.05881e-06
0.000933603
-3.87239e-06
-2.06821e-06
0.000895706
-2.08805e-06
0.00084614
-4.62641e-06
3.88487e-06
-3.03558e-06
0.000815479
-4.65219e-06
3.01378e-06
-3.02257e-06
0.000867276
2.05882e-06
-3.01377e-06
0.00090686
1.04469e-06
-3.00424e-06
0.000933603
-2.84774e-12
-2.99763e-06
0.000947081
-1.04469e-06
-2.99763e-06
0.000947081
-2.05883e-06
-3.00424e-06
0.000933603
-3.01378e-06
-3.01377e-06
0.00090686
-3.88486e-06
-3.02258e-06
0.000867276
-3.03559e-06
0.000815479
-4.65217e-06
3.89059e-06
-3.8634e-06
0.000770056
-4.68159e-06
3.02257e-06
-3.89058e-06
0.000825176
2.06821e-06
-3.88486e-06
0.000867276
1.0505e-06
-3.87238e-06
0.000895706
-3.45362e-12
-3.86338e-06
0.000910032
-1.05051e-06
-3.86338e-06
0.000910032
-2.06821e-06
-3.87238e-06
0.000895706
-3.02258e-06
-3.88485e-06
0.000867276
-3.89058e-06
-3.89058e-06
0.000825176
-3.86341e-06
0.000770056
-4.68157e-06
3.86339e-06
0.000710544
-4.60994e-06
-4.60994e-06
3.03558e-06
0.000770056
-4.68158e-06
2.08804e-06
0.000815479
-4.65217e-06
1.06238e-06
0.00084614
-4.62641e-06
-5.17004e-12
0.000861585
-4.61334e-06
-1.06239e-06
0.000861585
-4.61334e-06
-2.08805e-06
0.00084614
-4.6264e-06
-3.03559e-06
0.000815479
-4.65216e-06
-3.86341e-06
0.000770056
-4.68157e-06
0.000710544
-4.60993e-06
-4.60994e-06
4.18624e-06
4.18623e-06
0.000712164
-4.99632e-06
-4.99631e-06
3.28912e-06
4.22852e-06
0.000771812
-5.08798e-06
2.26109e-06
4.21789e-06
0.00081734
-5.05059e-06
1.14985e-06
4.19828e-06
0.000848071
-5.01813e-06
2.1575e-11
4.18458e-06
0.000863552
-5.0013e-06
-1.1498e-06
4.18458e-06
0.000863552
-5.00129e-06
-2.26104e-06
4.19827e-06
0.000848071
-5.01813e-06
-3.28907e-06
4.21787e-06
0.00081734
-5.05057e-06
-4.18614e-06
4.22849e-06
0.000771812
-5.08795e-06
4.18616e-06
0.000712164
-4.99625e-06
-4.99628e-06
4.22852e-06
3.28912e-06
0.000771812
-5.08798e-06
3.28676e-06
3.28677e-06
0.000827059
2.24892e-06
3.27522e-06
0.000869256
1.14213e-06
3.25903e-06
0.000897752
1.83747e-11
3.24762e-06
0.000912111
-1.14209e-06
3.24762e-06
0.000912111
-2.24888e-06
3.25902e-06
0.000897752
-3.28672e-06
3.2752e-06
0.000869256
-4.22846e-06
3.28673e-06
0.000827059
3.28908e-06
0.000771812
-5.08792e-06
4.21789e-06
2.26109e-06
0.00081734
-5.05059e-06
3.27522e-06
2.24892e-06
0.000869256
2.23916e-06
2.23917e-06
0.000908932
1.13673e-06
2.22746e-06
0.000935736
1.46423e-11
2.21913e-06
0.000949246
-1.1367e-06
2.21913e-06
0.000949246
-2.23913e-06
2.22745e-06
0.000935736
-3.27519e-06
2.23915e-06
0.000908932
-4.21784e-06
2.2489e-06
0.000869256
2.26105e-06
0.00081734
-5.05053e-06
4.19828e-06
1.14985e-06
0.000848071
-5.01813e-06
3.25903e-06
1.14213e-06
0.000897752
2.22745e-06
1.13673e-06
0.000935736
1.13072e-06
1.13072e-06
0.000961406
1.1537e-11
1.1264e-06
0.000974346
-1.1307e-06
1.1264e-06
0.000974346
-2.22743e-06
1.13071e-06
0.000961406
-3.259e-06
1.13672e-06
0.000935736
-4.19824e-06
1.14211e-06
0.000897752
1.14982e-06
0.000848071
-5.01808e-06
4.18458e-06
2.3485e-11
0.000863552
-5.00129e-06
3.24762e-06
2.0688e-11
0.000912111
2.21913e-06
1.79505e-11
0.000949246
1.1264e-06
1.50445e-11
0.000974346
8.48733e-12
1.21222e-11
0.000986999
-1.12638e-06
9.50763e-12
0.000986999
-2.21911e-06
7.30881e-12
0.000974346
-3.2476e-06
4.93542e-12
0.000949246
-4.18455e-06
9.14401e-13
0.000912111
-3.48974e-12
0.000863552
-5.00125e-06
4.18458e-06
-1.1498e-06
0.000863552
-5.00129e-06
3.24761e-06
-1.14209e-06
0.000912111
2.21912e-06
-1.1367e-06
0.000949246
1.1264e-06
-1.13069e-06
0.000974346
5.59325e-12
-1.12638e-06
0.000986999
-1.12638e-06
-1.12638e-06
0.000986999
-2.21911e-06
-1.1307e-06
0.000974346
-3.2476e-06
-1.13671e-06
0.000949246
-4.18455e-06
-1.14211e-06
0.000912111
-1.14982e-06
0.000863552
-5.00125e-06
4.19827e-06
-2.26104e-06
0.000848071
-5.01812e-06
3.25902e-06
-2.24888e-06
0.000897752
2.22744e-06
-2.23914e-06
0.000935736
1.13071e-06
-2.22743e-06
0.000961406
3.09701e-12
-2.21911e-06
0.000974346
-1.1307e-06
-2.21911e-06
0.000974346
-2.22744e-06
-2.22744e-06
0.000961406
-3.25901e-06
-2.23914e-06
0.000935736
-4.19825e-06
-2.2489e-06
0.000897752
-2.26106e-06
0.000848071
-5.01808e-06
4.21787e-06
-3.28908e-06
0.00081734
-5.05057e-06
3.2752e-06
-3.28673e-06
0.000869256
2.23915e-06
-3.27519e-06
0.000908932
1.13671e-06
-3.25901e-06
0.000935736
1.09756e-12
-3.2476e-06
0.000949246
-1.13671e-06
-3.2476e-06
0.000949246
-2.23915e-06
-3.25901e-06
0.000935736
-3.2752e-06
-3.2752e-06
0.000908932
-4.21785e-06
-3.28674e-06
0.000869256
-3.2891e-06
0.00081734
-5.05053e-06
4.22848e-06
-4.18615e-06
0.000771812
-5.08795e-06
3.28673e-06
-4.22847e-06
0.000827059
2.24889e-06
-4.21785e-06
0.000869256
1.1421e-06
-4.19825e-06
0.000897752
-6.18344e-13
-4.18455e-06
0.000912111
-1.14211e-06
-4.18455e-06
0.000912111
-2.24889e-06
-4.19825e-06
0.000897752
-3.28674e-06
-4.21785e-06
0.000869256
-4.22847e-06
-4.22848e-06
0.000827059
-4.18618e-06
0.000771812
-5.08792e-06
4.18615e-06
0.000712164
-4.99627e-06
-4.99627e-06
3.28908e-06
0.000771812
-5.08793e-06
2.26105e-06
0.00081734
-5.05054e-06
1.14982e-06
0.000848071
-5.01809e-06
-1.86092e-12
0.000863552
-5.00126e-06
-1.14982e-06
0.000863552
-5.00126e-06
-2.26106e-06
0.000848071
-5.01809e-06
-3.28909e-06
0.00081734
-5.05054e-06
-4.18617e-06
0.000771812
-5.08793e-06
0.000712164
-4.99626e-06
-4.99627e-06
4.43418e-06
4.43417e-06
0.000713882
-5.2931e-06
-5.29308e-06
3.48365e-06
4.48977e-06
0.000773674
-5.40168e-06
2.39352e-06
4.47408e-06
0.000819312
-5.35672e-06
1.21662e-06
4.44708e-06
0.000850119
-5.31749e-06
2.28792e-11
4.42846e-06
0.000865636
-5.29673e-06
-1.21657e-06
4.42845e-06
0.000865636
-5.29672e-06
-2.39346e-06
4.44707e-06
0.000850119
-5.31748e-06
-3.48359e-06
4.47406e-06
0.000819312
-5.35669e-06
-4.43408e-06
4.48973e-06
0.000773674
-5.40165e-06
4.43409e-06
0.000713882
-5.29302e-06
-5.29304e-06
4.48978e-06
3.48364e-06
0.000773674
-5.40169e-06
3.49136e-06
3.49135e-06
0.000829056
2.38888e-06
3.47703e-06
0.000871355
1.21305e-06
3.45397e-06
0.000899921
1.94964e-11
3.43756e-06
0.000914315
-1.21301e-06
3.43756e-06
0.000914315
-2.38883e-06
3.45396e-06
0.000899921
-3.49131e-06
3.47701e-06
0.000871355
-4.48972e-06
3.49131e-06
0.000829056
3.48359e-06
0.000773674
-5.40162e-06
4.47409e-06
2.39351e-06
0.000819312
-5.35673e-06
3.47704e-06
2.38887e-06
0.000871355
2.37881e-06
2.3788e-06
0.000911128
1.20813e-06
2.36262e-06
0.000937998
1.47445e-11
2.35059e-06
0.000951541
-1.2081e-06
2.35059e-06
0.000951541
-2.37877e-06
2.36261e-06
0.000937998
-3.47701e-06
2.37877e-06
0.000911128
-4.47404e-06
2.38883e-06
0.000871355
2.39347e-06
0.000819312
-5.35667e-06
4.4471e-06
1.21661e-06
0.000850119
-5.31751e-06
3.45398e-06
1.21304e-06
0.000899921
2.36263e-06
1.20812e-06
0.000937998
1.20013e-06
1.20012e-06
0.000963731
1.05687e-11
1.19394e-06
0.000976702
-1.20011e-06
1.19393e-06
0.000976702
-2.36261e-06
1.20011e-06