/*--------------------------------*- C++ -*----------------------------------*\
| =========                 |                                                 |
| \\      /  F ield         | OpenFOAM: The Open Source CFD Toolbox           |
|  \\    /   O peration     | Version:  2412                                  |
|   \\  /    A nd           | Website:  www.openfoam.com                      |
|    \\/     M anipulation  |                                                 |
\*---------------------------------------------------------------------------*/
FoamFile
{
    version     2.0;
    format      ascii;
    arch        "LSB;label=32;scalar=64";
    class       volVectorField;
    location    "0.2";
    object      U;
}
// * * * * * * * * * * * * * * * * * * * * * * * * * * * * * * * * * * * * * //

dimensions      [0 1 -1 0 0 0 0];

internalField   nonuniform List<vector> 
15000
(
(0.000589662 0.000589628 15.0007)
(0.000404358 0.00060149 15.0007)
(0.000293529 0.00060916 15.0007)
(0.000179643 0.00060949 15.0007)
(6.02895e-05 0.000608379 15.0007)
(-6.02568e-05 0.000608367 15.0007)
(-0.000179613 0.000609452 15.0007)
(-0.000293505 0.000609092 15.0007)
(-0.000404338 0.000601379 15.0007)
(-0.000589667 0.000589457 15.0007)
(0.000601525 0.000404324 15.0007)
(0.000423352 0.00042332 15.0007)
(0.000303548 0.000440209 15.0007)
(0.000184737 0.000447835 15.0007)
(6.19236e-05 0.000450595 15.0007)
(-6.19128e-05 0.000450587 15.0007)
(-0.000184731 0.000447811 15.0007)
(-0.000303555 0.00044017 15.0007)
(-0.000423385 0.000423266 15.0007)
(-0.000601584 0.000404257 15.0007)
(0.0006092 0.000293496 15.0007)
(0.000440243 0.000303518 15.0007)
(0.000315241 0.00031521 15.0007)
(0.00019084 0.000321293 15.0007)
(6.38236e-05 0.000323786 15.0007)
(-6.38206e-05 0.000323781 15.0007)
(-0.00019084 0.000321279 15.0007)
(-0.000315247 0.000315191 15.0007)
(-0.000440263 0.000303505 15.0007)
(-0.000609236 0.000293512 15.0007)
(0.000609536 0.000179607 15.0007)
(0.00044787 0.000184704 15.0007)
(0.000321323 0.000190805 15.0007)
(0.000194151 0.000194116 15.0007)
(6.48626e-05 0.000195535 15.0007)
(-6.48712e-05 0.00019553 15.0007)
(-0.00019416 0.000194101 15.0007)
(-0.000321332 0.000190781 15.0007)
(-0.000447874 0.00018468 15.0007)
(-0.000609547 0.000179602 15.0007)
(0.000608432 6.02515e-05 15.0007)
(0.000450632 6.18899e-05 15.0007)
(0.000323815 6.37878e-05 15.0007)
(0.00019557 6.48271e-05 15.0007)
(6.53158e-05 6.52806e-05 15.0007)
(-6.53344e-05 6.52763e-05 15.0007)
(-0.000195589 6.48142e-05 15.0007)
(-0.000323832 6.37661e-05 15.0007)
(-0.000450633 6.18621e-05 15.0007)
(-0.000608432 6.02328e-05 15.0007)
(0.000608429 -6.0296e-05 15.0007)
(0.000450627 -6.19456e-05 15.0007)
(0.000323809 -6.38558e-05 15.0007)
(0.000195565 -6.49063e-05 15.0007)
(6.53116e-05 -6.53693e-05 15.0007)
(-6.53379e-05 -6.53728e-05 15.0007)
(-0.000195592 -6.4917e-05 15.0007)
(-0.000323835 -6.38743e-05 15.0007)
(-0.000450631 -6.19718e-05 15.0007)
(-0.000608425 -6.0321e-05 15.0007)
(0.000609526 -0.000179652 15.0007)
(0.000447854 -0.00018476 15.0007)
(0.000321305 -0.000190874 15.0007)
(0.000194136 -0.000194196 15.0007)
(6.48493e-05 -0.000195625 15.0007)
(-6.48822e-05 -0.000195628 15.0007)
(-0.00019417 -0.000194205 15.0007)
(-0.000321339 -0.00019089 15.0007)
(-0.000447865 -0.000184784 15.0007)
(-0.000609524 -0.00017968 15.0007)
(0.000609182 -0.00029354 15.0007)
(0.000440215 -0.000303572 15.0007)
(0.000315211 -0.000315277 15.0007)
(0.000190814 -0.00032137 15.0007)
(6.38011e-05 -0.000323872 15.0007)
(-6.38395e-05 -0.000323874 15.0007)
(-0.000190854 -0.000321377 15.0007)
(-0.000315252 -0.00031529 15.0007)
(-0.000440236 -0.000303593 15.0007)
(-0.000609186 -0.000293569 15.0007)
(0.000601492 -0.000404349 15.0007)
(0.000423307 -0.000423369 15.0007)
(0.000303506 -0.000440272 15.0007)
(0.000184703 -0.000447907 15.0007)
(6.18948e-05 -0.000450677 15.0007)
(-6.19367e-05 -0.000450677 15.0007)
(-0.000184748 -0.00044791 15.0007)
(-0.000303556 -0.000440279 15.0007)
(-0.000423342 -0.000423384 15.0007)
(-0.000601508 -0.00040438 15.0007)
(0.000589595 -0.000589643 15.0007)
(0.000404285 -0.00060153 15.0007)
(0.000293478 -0.000609215 15.0007)
(0.0001796 -0.000609555 15.0007)
(6.02513e-05 -0.000608456 15.0007)
(-6.02923e-05 -0.000608456 15.0007)
(-0.000179646 -0.000609556 15.0007)
(-0.000293531 -0.000609219 15.0007)
(-0.000404337 -0.000601539 15.0007)
(-0.00058963 -0.000589665 15.0007)
(0.0015011 0.00150104 15.0074)
(0.00112719 0.00157402 15.0074)
(0.000814013 0.00162833 15.0074)
(0.000492894 0.00165691 15.0074)
(0.000164944 0.00166878 15.0074)
(-0.000164892 0.00166878 15.0074)
(-0.000492841 0.00165691 15.0074)
(-0.000813955 0.00162833 15.0074)
(-0.00112709 0.001574 15.0074)
(-0.00150099 0.00150097 15.0074)
(0.00157407 0.00112713 15.0074)
(0.00117846 0.00117841 15.0074)
(0.000847375 0.0012311 15.0074)
(0.000511575 0.00126247 15.0074)
(0.000170973 0.00127648 15.0074)
(-0.000170925 0.00127647 15.0074)
(-0.000511525 0.00126246 15.0074)
(-0.000847321 0.00123108 15.0074)
(-0.00117838 0.00117837 15.0074)
(-0.00157395 0.00112705 15.0074)
(0.00162838 0.000813958 15.0074)
(0.00123115 0.000847316 15.0074)
(0.000883237 0.000883178 15.0074)
(0.000531517 0.000906159 15.0074)
(0.000177349 0.000916996 15.0074)
(-0.00017731 0.000916991 15.0074)
(-0.000531476 0.000906143 15.0074)
(-0.000883193 0.000883149 15.0074)
(-0.00123108 0.000847268 15.0074)
(-0.00162827 0.000813895 15.0074)
(0.00165695 0.000492841 15.0074)
(0.00126252 0.000511516 15.0074)
(0.000906217 0.000531457 15.0074)
(0.000544745 0.000544685 15.0074)
(0.000181638 0.000551142 15.0074)
(-0.000181612 0.000551135 15.0074)
(-0.000544718 0.000544665 15.0074)
(-0.000906189 0.000531422 15.0074)
(-0.00126247 0.000511462 15.0074)
(-0.00165686 0.000492769 15.0074)
(0.00166882 0.00016489 15.0074)
(0.00127653 0.000170911 15.0074)
(0.000917052 0.000177285 15.0074)
(0.000551202 0.000181573 15.0074)
(0.000183765 0.000183699 15.0074)
(-0.000183753 0.000183692 15.0074)
(-0.00055119 0.000181552 15.0074)
(-0.000917042 0.000177248 15.0074)
(-0.00127649 0.000170856 15.0074)
(-0.00166874 0.000164816 15.0074)
(0.00166881 -0.000164948 15.0074)
(0.00127652 -0.00017099 15.0074)
(0.000917044 -0.00017738 15.0074)
(0.000551194 -0.000181684 15.0074)
(0.000183758 -0.000183825 15.0074)
(-0.00018376 -0.000183832 15.0074)
(-0.000551198 -0.000181705 15.0074)
(-0.000917051 -0.000177417 15.0074)
(-0.00127651 -0.000171044 15.0074)
(-0.00166876 -0.000165019 15.0074)
(0.00165693 -0.000492902 15.0074)
(0.0012625 -0.000511598 15.0074)
(0.000906194 -0.000531555 15.0074)
(0.000544724 -0.000544798 15.0074)
(0.000181618 -0.00055127 15.0074)
(-0.000181633 -0.000551276 15.0074)
(-0.000544742 -0.000544818 15.0074)
(-0.000906217 -0.000531589 15.0074)
(-0.0012625 -0.000511649 15.0074)
(-0.0016569 -0.000492969 15.0074)
(0.00162835 -0.000814027 15.0074)
(0.00123111 -0.000847406 15.0074)
(0.000883199 -0.000883285 15.0074)
(0.000531481 -0.00090628 15.0074)
(0.000177316 -0.000917129 15.0074)
(-0.000177344 -0.000917134 15.0074)
(-0.000531513 -0.000906296 15.0074)
(-0.000883236 -0.000883314 15.0074)
(-0.00123113 -0.000847452 15.0074)
(-0.00162833 -0.000814091 15.0074)
(0.00157401 -0.00112718 15.0074)
(0.0011784 -0.00117848 15.0074)
(0.00084732 -0.00123119 15.0074)
(0.000511526 -0.00126258 15.0074)
(0.000170929 -0.00127659 15.0074)
(-0.000170967 -0.00127659 15.0074)
(-0.000511569 -0.00126258 15.0074)
(-0.000847372 -0.00123121 15.0074)
(-0.00117844 -0.00117852 15.0074)
(-0.00157402 -0.00112724 15.0074)
(0.00150098 -0.00150106 15.0074)
(0.00112709 -0.00157407 15.0074)
(0.000813947 -0.0016284 15.0074)
(0.000492839 -0.00165698 15.0074)
(0.000164895 -0.00166885 15.0074)
(-0.000164936 -0.00166885 15.0074)
(-0.000492885 -0.00165698 15.0074)
(-0.000814008 -0.0016284 15.0074)
(-0.00112716 -0.00157408 15.0074)
(-0.00150103 -0.0015011 15.0074)
(0.00243128 0.00243122 15.0222)
(0.00184644 0.00258617 15.0222)
(0.00132338 0.00270138 15.0222)
(0.000798993 0.00276928 15.0222)
(0.000267173 0.00280048 15.0222)
(-0.00026716 0.00280048 15.0222)
(-0.00079898 0.00276928 15.0222)
(-0.00132336 0.00270139 15.0222)
(-0.00184639 0.00258616 15.0222)
(-0.00243121 0.00243117 15.0222)
(0.00258624 0.00184638 15.0222)
(0.00195672 0.00195667 15.0222)
(0.00139523 0.00205862 15.0222)
(0.000838769 0.00212361 15.0222)
(0.000279949 0.00215436 15.0222)
(-0.000279945 0.00215436 15.0222)
(-0.000838764 0.00212361 15.0222)
(-0.00139522 0.00205861 15.0222)
(-0.0019567 0.00195664 15.0222)
(-0.00258618 0.00184633 15.0222)
(0.00270144 0.00132333 15.0222)
(0.00205868 0.00139518 15.0222)
(0.00146434 0.00146428 15.0222)
(0.000877638 0.00151154 15.0222)
(0.000292452 0.00153484 15.0222)
(-0.000292456 0.00153484 15.0222)
(-0.00087764 0.00151153 15.0222)
(-0.00146434 0.00146427 15.0222)
(-0.00205866 0.00139515 15.0222)
(-0.0027014 0.00132329 15.0222)
(0.00276934 0.000798945 15.0222)
(0.00212367 0.00083872 15.0222)
(0.00151159 0.000877589 15.0222)
(0.00090531 0.00090526 15.0222)
(0.000301507 0.000919317 15.0222)
(-0.000301519 0.000919314 15.0222)
(-0.00090532 0.00090525 15.0222)
(-0.0015116 0.00087757 15.0222)
(-0.00212366 0.00083869 15.0222)
(-0.0027693 0.0007989 15.0222)
(0.00280054 0.000267128 15.0222)
(0.00215441 0.000279902 15.0222)
(0.00153489 0.000292404 15.0222)
(0.000919367 0.000301457 15.0222)
(0.000306171 0.00030612 15.0222)
(-0.00030619 0.000306117 15.0222)
(-0.000919386 0.000301446 15.0222)
(-0.00153491 0.000292384 15.0222)
(-0.00215441 0.00027987 15.0222)
(-0.00280051 0.000267082 15.0222)
(0.00280054 -0.000267203 15.0222)
(0.00215441 -0.000279991 15.0222)
(0.00153488 -0.000292505 15.0222)
(0.000919363 -0.00030157 15.0222)
(0.000306168 -0.000306243 15.0222)
(-0.000306193 -0.000306246 15.0222)
(-0.00091939 -0.000301581 15.0222)
(-0.00153491 -0.000292525 15.0222)
(-0.00215442 -0.000280023 15.0222)
(-0.00280051 -0.000267247 15.0222)
(0.00276933 -0.000799021 15.0222)
(0.00212365 -0.000838811 15.0222)
(0.00151157 -0.000877692 15.0222)
(0.000905298 -0.000905375 15.0222)
(0.000301497 -0.000919442 15.0222)
(-0.000301528 -0.000919445 15.0222)
(-0.000905331 -0.000905385 15.0222)
(-0.00151161 -0.000877711 15.0222)
(-0.00212367 -0.000838842 15.0222)
(-0.00276931 -0.000799065 15.0222)
(0.00270142 -0.00132341 15.0222)
(0.00205865 -0.00139528 15.0222)
(0.00146431 -0.00146439 15.0222)
(0.000877617 -0.00151166 15.0222)
(0.000292435 -0.00153497 15.0222)
(-0.000292472 -0.00153497 15.0222)
(-0.000877656 -0.00151166 15.0222)
(-0.00146435 -0.00146441 15.0222)
(-0.00205868 -0.0013953 15.0222)
(-0.00270141 -0.00132345 15.0222)
(0.00258619 -0.00184644 15.0222)
(0.00195667 -0.00195675 15.0222)
(0.00139519 -0.00205872 15.0222)
(0.000838738 -0.00212372 15.0222)
(0.000279924 -0.00215447 15.0222)
(-0.000279966 -0.00215448 15.0222)
(-0.000838784 -0.00212373 15.0222)
(-0.00139524 -0.00205873 15.0222)
(-0.00195671 -0.00195677 15.0222)
(-0.0025862 -0.00184649 15.0222)
(0.00243119 -0.00243127 15.0222)
(0.00184635 -0.00258625 15.0222)
(0.00132333 -0.00270147 15.0222)
(0.000798952 -0.00276937 15.0222)
(0.00026714 -0.00280057 15.0222)
(-0.000267187 -0.00280057 15.0222)
(-0.000799003 -0.00276937 15.0222)
(-0.00132339 -0.00270147 15.0222)
(-0.00184642 -0.00258626 15.0222)
(-0.00243123 -0.0024313 15.0222)
(0.00319286 0.00319283 15.0439)
(0.00241727 0.00342046 15.0439)
(0.00172623 0.00358511 15.0439)
(0.00104125 0.00368543 15.0438)
(0.000348008 0.00373313 15.0438)
(-0.000348019 0.00373313 15.0438)
(-0.00104127 0.00368543 15.0438)
(-0.00172625 0.00358512 15.0439)
(-0.00241726 0.00342046 15.0439)
(-0.00319282 0.00319279 15.0439)
(0.00342049 0.00241724 15.0439)
(0.00258768 0.00258765 15.0439)
(0.00183668 0.00272856 15.0439)
(0.00110292 0.00281923 15.0439)
(0.000367945 0.00286298 15.0439)
(-0.000367972 0.00286298 15.0439)
(-0.00110295 0.00281923 15.0439)
(-0.0018367 0.00272856 15.0439)
(-0.00258769 0.00258764 15.0439)
(-0.00342046 0.00241719 15.0439)
(0.00358514 0.00172621 15.0439)
(0.00272858 0.00183666 15.0439)
(0.00193228 0.00193226 15.0439)
(0.00115749 0.00199768 15.0439)
(0.000385664 0.00203028 15.0438)
(-0.000385698 0.00203028 15.0438)
(-0.00115752 0.00199767 15.0439)
(-0.00193231 0.00193226 15.0439)
(-0.0027286 0.00183664 15.0439)
(-0.00358512 0.00172618 15.0439)
(0.00368545 0.00104123 15.0438)
(0.00281925 0.00110291 15.0439)
(0.00199769 0.00115747 15.0439)
(0.00119617 0.00119615 15.0438)
(0.000398405 0.00121588 15.0438)
(-0.000398444 0.00121588 15.0438)
(-0.00119621 0.00119615 15.0438)
(-0.00199773 0.00115747 15.0439)
(-0.00281927 0.0011029 15.0439)
(-0.00368544 0.00104121 15.0438)
(0.00373315 0.00034799 15.0438)
(0.00286299 0.000367932 15.0439)
(0.00203029 0.000385651 15.0438)
(0.00121589 0.000398391 15.0438)
(0.000404968 0.000404954 15.0438)
(-0.000405009 0.000404954 15.0438)
(-0.00121593 0.00039839 15.0438)
(-0.00203034 0.000385647 15.0438)
(-0.00286302 0.000367921 15.0439)
(-0.00373314 0.000347968 15.0438)
(0.00373315 -0.000348035 15.0438)
(0.00286299 -0.000367984 15.0439)
(0.00203029 -0.00038571 15.0438)
(0.00121589 -0.000398456 15.0438)
(0.000404968 -0.000405023 15.0438)
(-0.000405009 -0.000405023 15.0438)
(-0.00121593 -0.000398458 15.0438)
(-0.00203034 -0.000385714 15.0438)
(-0.00286301 -0.000367994 15.0439)
(-0.00373314 -0.000348054 15.0438)
(0.00368545 -0.00104128 15.0438)
(0.00281924 -0.00110296 15.0439)
(0.00199769 -0.00115753 15.0439)
(0.00119617 -0.00119622 15.0438)
(0.000398403 -0.00121595 15.0438)
(-0.000398443 -0.00121595 15.0438)
(-0.00119621 -0.00119622 15.0438)
(-0.00199773 -0.00115754 15.0439)
(-0.00281927 -0.00110297 15.0439)
(-0.00368543 -0.0010413 15.0438)
(0.00358512 -0.00172626 15.0439)
(0.00272856 -0.00183671 15.0439)
(0.00193227 -0.00193233 15.0439)
(0.00115748 -0.00199775 15.0439)
(0.00038566 -0.00203035 15.0438)
(-0.000385699 -0.00203035 15.0438)
(-0.00115752 -0.00199775 15.0439)
(-0.00193231 -0.00193233 15.0439)
(-0.00272859 -0.00183672 15.0439)
(-0.00358511 -0.00172628 15.0439)
(0.00342046 -0.00241727 15.0439)
(0.00258764 -0.0025877 15.0439)
(0.00183665 -0.00272861 15.0439)
(0.00110291 -0.00281929 15.0439)
(0.000367937 -0.00286303 15.0439)
(-0.000367976 -0.00286303 15.0439)
(-0.00110295 -0.00281929 15.0439)
(-0.0018367 -0.00272861 15.0439)
(-0.00258768 -0.00258771 15.0439)
(-0.00342046 -0.0024173 15.0439)
(0.00319279 -0.00319284 15.0439)
(0.00241721 -0.00342049 15.0439)
(0.0017262 -0.00358514 15.0439)
(0.00104123 -0.00368546 15.0438)
(0.000347989 -0.00373316 15.0438)
(-0.000348033 -0.00373316 15.0438)
(-0.00104127 -0.00368546 15.0438)
(-0.00172625 -0.00358514 15.0439)
(-0.00241727 -0.00342049 15.0439)
(-0.00319282 -0.00319285 15.0439)
(0.00377751 0.0037775 15.0705)
(0.00283203 0.00406062 15.0705)
(0.00201824 0.00425843 15.0705)
(0.00121715 0.00437937 15.0705)
(0.000406672 0.00443744 15.0705)
(-0.000406672 0.00443744 15.0705)
(-0.00121715 0.00437937 15.0705)
(-0.00201825 0.00425843 15.0705)
(-0.00283201 0.0040606 15.0705)
(-0.00377748 0.00377744 15.0705)
(0.00406062 0.00283202 15.0705)
(0.00305798 0.00305798 15.0705)
(0.00216431 0.00322584 15.0705)
(0.00129975 0.00333156 15.0705)
(0.000433575 0.00338245 15.0705)
(-0.000433594 0.00338245 15.0705)
(-0.00129977 0.00333156 15.0705)
(-0.00216434 0.00322583 15.0705)
(-0.00305799 0.00305796 15.0705)
(-0.00406061 0.00283196 15.0705)
(0.00425843 0.00201823 15.0705)
(0.00322583 0.00216431 15.0705)
(0.00227896 0.00227897 15.0705)
(0.00136626 0.00235485 15.0705)
(0.000455393 0.00239225 15.0705)
(-0.000455422 0.00239225 15.0705)
(-0.00136629 0.00235484 15.0705)
(-0.002279 0.00227896 15.0705)
(-0.00322586 0.0021643 15.0705)
(-0.00425843 0.0020182 15.0705)
(0.00437937 0.00121715 15.0705)
(0.00333155 0.00129976 15.0705)
(0.00235484 0.00136627 15.0705)
(0.00141152 0.00141153 15.0705)
(0.000470393 0.00143418 15.0705)
(-0.000470427 0.00143418 15.0705)
(-0.00141155 0.00141152 15.0705)
(-0.00235488 0.00136626 15.0705)
(-0.00333158 0.00129974 15.0705)
(-0.00437937 0.00121713 15.0705)
(0.00443743 0.000406673 15.0705)
(0.00338244 0.000433583 15.0705)
(0.00239224 0.000455404 15.0705)
(0.00143417 0.000470404 15.0705)
(0.000477946 0.000477957 15.0705)
(-0.000477981 0.000477957 15.0705)
(-0.00143421 0.000470403 15.0705)
(-0.00239228 0.000455402 15.0705)
(-0.00338246 0.000433577 15.0705)
(-0.00443743 0.000406658 15.0705)
(0.00443743 -0.00040667 15.0705)
(0.00338244 -0.000433584 15.0705)
(0.00239224 -0.00045541 15.0705)
(0.00143417 -0.000470414 15.0705)
(0.000477946 -0.00047797 15.0705)
(-0.00047798 -0.00047797 15.0705)
(-0.0014342 -0.000470414 15.0705)
(-0.00239228 -0.000455411 15.0705)
(-0.00338246 -0.000433589 15.0705)
(-0.00443742 -0.000406682 15.0705)
(0.00437936 -0.00121715 15.0705)
(0.00333155 -0.00129976 15.0705)
(0.00235483 -0.00136628 15.0705)
(0.00141151 -0.00141154 15.0705)
(0.000470393 -0.00143419 15.0705)
(-0.000470424 -0.00143419 15.0705)
(-0.00141155 -0.00141154 15.0705)
(-0.00235487 -0.00136627 15.0705)
(-0.00333156 -0.00129976 15.0705)
(-0.00437935 -0.00121716 15.0705)
(0.00425842 -0.00201824 15.0705)
(0.00322582 -0.00216432 15.0705)
(0.00227895 -0.00227898 15.0705)
(0.00136625 -0.00235486 15.0705)
(0.000455391 -0.00239227 15.0705)
(-0.00045542 -0.00239226 15.0705)
(-0.00136628 -0.00235486 15.0705)
(-0.00227898 -0.00227898 15.0705)
(-0.00322584 -0.00216432 15.0705)
(-0.0042584 -0.00201825 15.0705)
(0.00406059 -0.002832 15.0705)
(0.00305795 -0.00305798 15.0705)
(0.00216429 -0.00322584 15.0705)
(0.00129974 -0.00333156 15.0705)
(0.000433569 -0.00338245 15.0705)
(-0.000433596 -0.00338245 15.0705)
(-0.00129977 -0.00333156 15.0705)
(-0.00216433 -0.00322583 15.0705)
(-0.00305797 -0.00305797 15.0705)
(-0.00406058 -0.00283202 15.0705)
(0.00377744 -0.00377747 15.0705)
(0.00283196 -0.0040606 15.0705)
(0.0020182 -0.00425841 15.0705)
(0.00121713 -0.00437935 15.0705)
(0.000406654 -0.00443741 15.0705)
(-0.000406686 -0.00443741 15.0705)
(-0.00121716 -0.00437934 15.0705)
(-0.00201825 -0.0042584 15.0705)
(-0.00283201 -0.00406059 15.0705)
(-0.00377746 -0.00377747 15.0705)
(0.00425637 0.00425637 15.1007)
(0.00315394 0.00458252 15.1007)
(0.00224469 0.00480212 15.1007)
(0.00135385 0.0049345 15.1008)
(0.000452274 0.00499773 15.1008)
(-0.000452247 0.00499773 15.1008)
(-0.00135382 0.0049345 15.1008)
(-0.00224466 0.00480211 15.1007)
(-0.00315389 0.00458249 15.1007)
(-0.0042563 0.00425631 15.1007)
(0.00458251 0.00315394 15.1007)
(0.00343094 0.00343095 15.1008)
(0.00242381 0.00361785 15.1008)
(0.00145641 0.00373096 15.1008)
(0.000485898 0.00378444 15.1008)
(-0.000485883 0.00378444 15.1008)
(-0.00145639 0.00373096 15.1008)
(-0.00242379 0.00361784 15.1008)
(-0.00343092 0.00343092 15.1008)
(-0.00458247 0.00315388 15.1007)
(0.00480211 0.00224469 15.1007)
(0.00361784 0.00242381 15.1008)
(0.0025526 0.00255261 15.1008)
(0.00153235 0.00263343 15.1008)
(0.00051106 0.00267219 15.1008)
(-0.000511054 0.00267219 15.1008)
(-0.00153234 0.00263343 15.1008)
(-0.0025526 0.0025526 15.1008)
(-0.00361783 0.00242379 15.1008)
(-0.00480208 0.00224466 15.1007)
(0.00493449 0.00135386 15.1008)
(0.00373095 0.00145642 15.1008)
(0.00263342 0.00153236 15.1008)
(0.00158096 0.00158097 15.1009)
(0.000527273 0.00160445 15.1009)
(-0.000527273 0.00160445 15.1009)
(-0.00158097 0.00158097 15.1009)
(-0.00263343 0.00153235 15.1008)
(-0.00373095 0.0014564 15.1008)
(-0.00493446 0.00135383 15.1008)
(0.00499772 0.00045228 15.1008)
(0.00378443 0.000485908 15.1008)
(0.00267218 0.000511071 15.1008)
(0.00160444 0.000527285 15.1009)
(0.000535115 0.000535126 15.1009)
(-0.000535119 0.000535125 15.1009)
(-0.00160444 0.00052728 15.1009)
(-0.00267219 0.000511063 15.1008)
(-0.00378443 0.000485892 15.1008)
(-0.00499769 0.000452255 15.1008)
(0.00499771 -0.000452241 15.1008)
(0.00378443 -0.000485873 15.1008)
(0.00267217 -0.000511043 15.1008)
(0.00160443 -0.000527262 15.1009)
(0.000535113 -0.000535108 15.1009)
(-0.00053512 -0.000535109 15.1009)
(-0.00160444 -0.000527265 15.1009)
(-0.00267219 -0.00051105 15.1008)
(-0.00378442 -0.000485887 15.1008)
(-0.00499768 -0.000452263 15.1008)
(0.00493448 -0.00135382 15.1008)
(0.00373094 -0.00145638 15.1008)
(0.00263341 -0.00153233 15.1008)
(0.00158096 -0.00158095 15.1009)
(0.000527268 -0.00160443 15.1009)
(-0.000527276 -0.00160443 15.1009)
(-0.00158097 -0.00158096 15.1009)
(-0.00263343 -0.00153234 15.1008)
(-0.00373094 -0.0014564 15.1008)
(-0.00493445 -0.00135384 15.1008)
(0.00480209 -0.00224466 15.1007)
(0.00361782 -0.00242379 15.1008)
(0.00255258 -0.00255259 15.1008)
(0.00153234 -0.00263342 15.1008)
(0.000511052 -0.00267218 15.1008)
(-0.00051106 -0.00267218 15.1008)
(-0.00153235 -0.00263342 15.1008)
(-0.0025526 -0.00255259 15.1008)
(-0.00361782 -0.0024238 15.1008)
(-0.00480206 -0.00224468 15.1007)
(0.00458248 -0.00315389 15.1007)
(0.00343091 -0.00343092 15.1008)
(0.00242378 -0.00361782 15.1008)
(0.00145639 -0.00373094 15.1008)
(0.000485884 -0.00378442 15.1008)
(-0.000485893 -0.00378442 15.1008)
(-0.0014564 -0.00373093 15.1008)
(-0.0024238 -0.00361782 15.1008)
(-0.00343092 -0.00343092 15.1008)
(-0.00458246 -0.00315391 15.1007)
(0.0042563 -0.0042563 15.1007)
(0.00315387 -0.00458246 15.1007)
(0.00224465 -0.00480207 15.1007)
(0.00135382 -0.00493445 15.1008)
(0.000452252 -0.00499768 15.1008)
(-0.000452266 -0.00499768 15.1008)
(-0.00135384 -0.00493444 15.1008)
(-0.00224468 -0.00480206 15.1007)
(-0.0031539 -0.00458246 15.1007)
(-0.00425631 -0.00425631 15.1007)
(0.00465229 0.00465228 15.134)
(0.00341117 0.00501317 15.134)
(0.0024252 0.00524791 15.134)
(0.00146288 0.00538634 15.1341)
(0.00048865 0.00545164 15.1341)
(-0.000488596 0.00545164 15.1341)
(-0.00146283 0.00538634 15.1341)
(-0.00242515 0.0052479 15.134)
(-0.00341108 0.00501315 15.134)
(-0.00465217 0.00465222 15.134)
(0.00501318 0.00341116 15.134)
(0.00373369 0.00373368 15.1341)
(0.0026342 0.00393439 15.1341)
(0.00158383 0.00405029 15.1341)
(0.000528501 0.00410362 15.1342)
(-0.000528456 0.00410362 15.1342)
(-0.00158379 0.00405029 15.1341)
(-0.00263416 0.00393438 15.1341)
(-0.00373363 0.00373365 15.1341)
(-0.00501309 0.0034111 15.134)
(0.00524792 0.0024252 15.134)
(0.00393439 0.0026342 15.1341)
(0.00277379 0.00277378 15.1342)
(0.0016674 0.00285624 15.1342)
(0.000556443 0.0028943 15.1342)
(-0.000556406 0.00289429 15.1342)
(-0.00166736 0.00285623 15.1342)
(-0.00277375 0.00277377 15.1342)
(-0.00393435 0.00263417 15.1341)
(-0.00524785 0.00242516 15.134)
(0.00538634 0.00146288 15.1341)
(0.0040503 0.00158383 15.1341)
(0.00285624 0.0016674 15.1342)
(0.00171742 0.00171742 15.1342)
(0.000573234 0.00174046 15.1342)
(-0.000573205 0.00174045 15.1342)
(-0.00171739 0.00171741 15.1342)
(-0.00285622 0.00166738 15.1342)
(-0.00405026 0.0015838 15.1341)
(-0.00538628 0.00146285 15.1341)
(0.00545164 0.000488649 15.1341)
(0.00410362 0.000528499 15.1342)
(0.0028943 0.000556442 15.1342)
(0.00174046 0.000573233 15.1342)
(0.000580945 0.000580943 15.1342)
(-0.000580922 0.00058094 15.1342)
(-0.00174044 0.000573223 15.1342)
(-0.00289428 0.000556425 15.1342)
(-0.00410359 0.000528475 15.1342)
(-0.00545159 0.000488614 15.1341)
(0.00545164 -0.000488598 15.1341)
(0.00410362 -0.000528458 15.1342)
(0.00289429 -0.000556408 15.1342)
(0.00174045 -0.000573207 15.1342)
(0.000580941 -0.000580925 15.1342)
(-0.000580925 -0.000580928 15.1342)
(-0.00174044 -0.000573216 15.1342)
(-0.00289428 -0.000556423 15.1342)
(-0.00410359 -0.00052848 15.1342)
(-0.00545159 -0.00048863 15.1341)
(0.00538633 -0.00146284 15.1341)
(0.00405028 -0.00158379 15.1341)
(0.00285623 -0.00166737 15.1342)
(0.00171741 -0.0017174 15.1342)
(0.000573224 -0.00174044 15.1342)
(-0.000573214 -0.00174044 15.1342)
(-0.0017174 -0.0017174 15.1342)
(-0.00285623 -0.00166738 15.1342)
(-0.00405026 -0.00158381 15.1341)
(-0.00538628 -0.00146287 15.1341)
(0.00524789 -0.00242516 15.134)
(0.00393437 -0.00263417 15.1341)
(0.00277376 -0.00277376 15.1342)
(0.00166738 -0.00285623 15.1342)
(0.000556426 -0.00289429 15.1342)
(-0.000556421 -0.00289429 15.1342)
(-0.00166738 -0.00285623 15.1342)
(-0.00277376 -0.00277377 15.1342)
(-0.00393436 -0.00263419 15.1341)
(-0.00524785 -0.00242519 15.134)
(0.00501313 -0.0034111 15.134)
(0.00373365 -0.00373365 15.1341)
(0.00263417 -0.00393436 15.1341)
(0.0015838 -0.00405027 15.1341)
(0.000528477 -0.0041036 15.1342)
(-0.000528477 -0.0041036 15.1342)
(-0.00158381 -0.00405027 15.1341)
(-0.00263418 -0.00393437 15.1341)
(-0.00373364 -0.00373366 15.1341)
(-0.0050131 -0.00341113 15.134)
(0.00465221 -0.0046522 15.134)
(0.00341109 -0.00501312 15.134)
(0.00242516 -0.00524787 15.134)
(0.00146285 -0.0053863 15.1341)
(0.00048862 -0.0054516 15.1341)
(-0.000488623 -0.0054516 15.1341)
(-0.00146286 -0.00538629 15.1341)
(-0.00242517 -0.00524786 15.134)
(-0.00341111 -0.00501312 15.134)
(-0.0046522 -0.00465222 15.134)
(0.00496373 0.00496371 15.1696)
(0.00360758 0.00535193 15.1697)
(0.00256249 0.00559712 15.1697)
(0.00154583 0.00573829 15.1697)
(0.000516314 0.00580392 15.1698)
(-0.000516254 0.00580392 15.1698)
(-0.00154577 0.00573828 15.1697)
(-0.00256243 0.0055971 15.1697)
(-0.00360749 0.0053519 15.1697)
(-0.00496363 0.00496365 15.1696)
(0.00535195 0.00360756 15.1697)
(0.00396849 0.00396847 15.1698)
(0.002797 0.0041789 15.1698)
(0.00168266 0.00429482 15.1699)
(0.000561561 0.0043465 15.1699)
(-0.000561512 0.0043465 15.1699)
(-0.00168262 0.00429481 15.1699)
(-0.00279695 0.00417887 15.1698)
(-0.00396843 0.00396842 15.1698)
(-0.00535187 0.00360749 15.1697)
(0.00559714 0.00256247 15.1697)
(0.00417891 0.00279698 15.1698)
(0.00294459 0.00294457 15.1699)
(0.00177222 0.00302672 15.1699)
(0.000591741 0.00306299 15.17)
(-0.000591703 0.00306298 15.17)
(-0.00177219 0.0030267 15.1699)
(-0.00294456 0.00294454 15.1699)
(-0.00417888 0.00279694 15.1698)
(-0.00559708 0.00256242 15.1697)
(0.00573831 0.00154582 15.1697)
(0.00429484 0.00168265 15.1699)
(0.00302674 0.0017722 15.1699)
(0.00182248 0.00182246 15.17)
(0.00060872 0.00184441 15.17)
(-0.000608691 0.0018444 15.17)
(-0.00182245 0.00182245 15.17)
(-0.00302672 0.00177218 15.1699)
(-0.00429481 0.00168261 15.1699)
(-0.00573826 0.00154577 15.1697)
(0.00580394 0.000516301 15.1698)
(0.00434652 0.000561546 15.1699)
(0.00306301 0.000591725 15.17)
(0.00184442 0.000608703 15.17)
(0.00061608 0.000616062 15.17)
(-0.000616061 0.000616058 15.17)
(-0.00184441 0.000608689 15.17)
(-0.003063 0.000591703 15.17)
(-0.0043465 0.000561516 15.1699)
(-0.00580389 0.000516264 15.1698)
(0.00580393 -0.000516268 15.1698)
(0.00434652 -0.000561528 15.1699)
(0.003063 -0.000591719 15.17)
(0.00184442 -0.000608708 15.17)
(0.000616075 -0.000616079 15.17)
(-0.000616066 -0.000616083 15.17)
(-0.00184441 -0.00060872 15.17)
(-0.003063 -0.000591738 15.17)
(-0.0043465 -0.000561553 15.1699)
(-0.00580389 -0.0005163 15.1698)
(0.0057383 -0.00154579 15.1697)
(0.00429482 -0.00168263 15.1699)
(0.00302672 -0.0017722 15.1699)
(0.00182246 -0.00182247 15.17)
(0.000608705 -0.00184442 15.17)
(-0.000608705 -0.00184443 15.17)
(-0.00182246 -0.00182248 15.17)
(-0.00302672 -0.00177222 15.1699)
(-0.00429481 -0.00168266 15.1699)
(-0.00573826 -0.00154582 15.1697)
(0.00559711 -0.00256245 15.1697)
(0.00417889 -0.00279697 15.1698)
(0.00294456 -0.00294458 15.1699)
(0.0017722 -0.00302673 15.1699)
(0.000591717 -0.00306301 15.17)
(-0.000591725 -0.00306302 15.17)
(-0.0017722 -0.00302674 15.1699)
(-0.00294457 -0.00294459 15.1699)
(-0.00417888 -0.00279699 15.1698)
(-0.00559708 -0.00256248 15.1697)
(0.0053519 -0.00360752 15.1697)
(0.00396844 -0.00396845 15.1698)
(0.00279695 -0.00417889 15.1698)
(0.00168263 -0.00429483 15.1699)
(0.000561528 -0.00434652 15.1699)
(-0.000561542 -0.00434652 15.1699)
(-0.00168264 -0.00429483 15.1699)
(-0.00279698 -0.0041789 15.1698)
(-0.00396845 -0.00396847 15.1698)
(-0.00535188 -0.00360755 15.1697)
(0.00496365 -0.00496366 15.1696)
(0.0036075 -0.0053519 15.1697)
(0.00256244 -0.0055971 15.1697)
(0.00154579 -0.00573828 15.1697)
(0.000516274 -0.00580391 15.1698)
(-0.000516291 -0.00580391 15.1698)
(-0.00154581 -0.00573828 15.1697)
(-0.00256247 -0.0055971 15.1697)
(-0.00360753 -0.00535191 15.1697)
(-0.00496365 -0.00496369 15.1696)
(0.00520142 0.00520139 15.2071)
(0.00375274 0.00561013 15.2072)
(0.0026636 0.00586221 15.2072)
(0.00160697 0.00600406 15.2072)
(0.000536689 0.00606906 15.2072)
(-0.000536648 0.00606905 15.2072)
(-0.00160693 0.00600404 15.2072)
(-0.00266357 0.00586218 15.2072)
(-0.00375269 0.00561008 15.2072)
(-0.00520136 0.00520131 15.2071)
(0.00561016 0.0037527 15.2072)
(0.00414455 0.00414452 15.2073)
(0.0029188 0.00436158 15.2073)
(0.0017568 0.00447604 15.2074)
(0.000586366 0.00452545 15.2074)
(-0.000586339 0.00452544 15.2074)
(-0.00175678 0.00447602 15.2074)
(-0.00291879 0.00436155 15.2073)
(-0.00414453 0.00414447 15.2073)
(-0.00561013 0.00375262 15.2072)
(0.00586224 0.00266357 15.2072)
(0.00436161 0.00291877 15.2073)
(0.0030722 0.00307217 15.2074)
(0.00185093 0.00315299 15.2075)
(0.000618291 0.00318707 15.2075)
(-0.000618279 0.00318706 15.2075)
(-0.00185092 0.00315297 15.2075)
(-0.0030722 0.00307214 15.2074)
(-0.00436161 0.00291872 15.2073)
(-0.00586223 0.00266351 15.2072)
(0.00600409 0.00160694 15.2072)
(0.00447607 0.00175677 15.2074)
(0.00315302 0.0018509 15.2075)
(0.00190077 0.00190074 15.2075)
(0.000635231 0.00192134 15.2075)
(-0.000635232 0.00192134 15.2075)
(-0.00190078 0.00190073 15.2075)
(-0.00315303 0.00185087 15.2075)
(-0.00447608 0.00175673 15.2074)
(-0.00600409 0.00160689 15.2072)
(0.00606909 0.000536665 15.2072)
(0.00452548 0.000586341 15.2074)
(0.0031871 0.000618265 15.2075)
(0.00192137 0.000635204 15.2075)
(0.000642157 0.000642128 15.2076)
(-0.000642168 0.000642122 15.2076)
(-0.00192139 0.000635188 15.2075)
(-0.00318712 0.00061824 15.2075)
(-0.0045255 0.00058631 15.2074)
(-0.00606908 0.000536631 15.2072)
(0.00606909 -0.00053667 15.2072)
(0.00452548 -0.000586363 15.2074)
(0.0031871 -0.000618303 15.2075)
(0.00192137 -0.000635257 15.2075)
(0.000642151 -0.000642194 15.2076)
(-0.000642173 -0.000642199 15.2076)
(-0.00192139 -0.000635271 15.2075)
(-0.00318713 -0.000618324 15.2075)
(-0.0045255 -0.000586389 15.2074)
(-0.00606908 -0.000536698 15.2072)
(0.00600408 -0.00160695 15.2072)
(0.00447606 -0.0017568 15.2074)
(0.003153 -0.00185094 15.2075)
(0.00190076 -0.0019008 15.2075)
(0.000635215 -0.00192141 15.2075)
(-0.000635247 -0.00192142 15.2075)
(-0.00190079 -0.00190081 15.2075)
(-0.00315304 -0.00185096 15.2075)
(-0.00447608 -0.00175682 15.2074)
(-0.00600408 -0.00160697 15.2072)
(0.00586222 -0.00266358 15.2072)