/*--------------------------------*- C++ -*----------------------------------*\
| =========                 |                                                 |
| \\      /  F ield         | OpenFOAM: The Open Source CFD Toolbox           |
|  \\    /   O peration     | Version:  2412                                  |
|   \\  /    A nd           | Website:  www.openfoam.com                      |
|    \\/     M anipulation  |                                                 |
\*---------------------------------------------------------------------------*/
FoamFile
{
    version     2.0;
    format      ascii;
    arch        "LSB;label=32;scalar=64";
    class       surfaceScalarField;
    location    "7.1";
    object      phi;
}
// * * * * * * * * * * * * * * * * * * * * * * * * * * * * * * * * * * * * * //

dimensions      [0 3 -1 0 0 0 0];

oriented        oriented;

internalField   nonuniform List<scalar> 
43700
(
1.85792e-07
1.85792e-07
5.49776e-07
-2.25671e-07
-2.25671e-07
1.37621e-07
1.65066e-07
5.93915e-07
-2.01425e-07
9.12309e-08
1.51654e-07
6.25306e-07
-1.91139e-07
4.52966e-08
1.42681e-07
6.45477e-07
-1.82512e-07
3.17631e-17
1.38355e-07
6.55393e-07
-1.78523e-07
-4.52966e-08
1.38355e-07
6.55393e-07
-1.78523e-07
-9.12309e-08
1.42681e-07
6.45477e-07
-1.82512e-07
-1.37621e-07
1.51654e-07
6.25306e-07
-1.91139e-07
-1.85792e-07
1.65066e-07
5.93915e-07
-2.01425e-07
1.85792e-07
5.49776e-07
-2.25671e-07
-2.25671e-07
1.65066e-07
1.37621e-07
5.93915e-07
-2.01425e-07
1.22896e-07
1.22896e-07
6.30184e-07
8.10179e-08
1.11646e-07
6.55575e-07
4.01291e-08
1.04102e-07
6.71964e-07
5.87714e-17
1.00402e-07
6.80055e-07
-4.01291e-08
1.00402e-07
6.80055e-07
-8.10179e-08
1.04102e-07
6.71964e-07
-1.22896e-07
1.11646e-07
6.55575e-07
-1.65066e-07
1.22896e-07
6.30184e-07
1.37621e-07
5.93915e-07
-2.01425e-07
1.51654e-07
9.12309e-08
6.25306e-07
-1.91139e-07
1.11646e-07
8.10179e-08
6.55575e-07
7.31127e-08
7.31127e-08
6.7694e-07
3.60999e-08
6.77982e-08
6.9088e-07
1.30684e-16
6.51748e-08
6.97805e-07
-3.60999e-08
6.51748e-08
6.97805e-07
-7.31127e-08
6.77982e-08
6.9088e-07
-1.11646e-07
7.31127e-08
6.7694e-07
-1.51654e-07
8.10179e-08
6.55575e-07
9.12309e-08
6.25306e-07
-1.91139e-07
1.42681e-07
4.52966e-08
6.45477e-07
-1.82512e-07
1.04102e-07
4.01291e-08
6.71964e-07
6.77982e-08
3.60999e-08
6.9088e-07
3.3378e-08
3.3378e-08
7.03343e-07
6.67966e-17
3.20296e-08
7.09565e-07
-3.3378e-08
3.20296e-08
7.09565e-07
-6.77982e-08
3.3378e-08
7.03343e-07
-1.04102e-07
3.60999e-08
6.9088e-07
-1.42681e-07
4.01291e-08
6.71964e-07
4.52966e-08
6.45477e-07
-1.82512e-07
1.38355e-07
-1.849e-17
6.55393e-07
-1.78523e-07
1.00402e-07
1.14593e-16
6.80055e-07
6.51748e-08
1.71531e-16
6.97805e-07
3.20296e-08
9.07181e-17
7.09565e-07
-1.45714e-16
-7.48479e-17
7.15452e-07
-3.20296e-08
1.1812e-16
7.15452e-07
-6.51748e-08
2.37753e-16
7.09565e-07
-1.00402e-07
1.79315e-16
6.97805e-07
-1.38355e-07
1.11302e-16
6.80055e-07
1.37888e-16
6.55393e-07
-1.78523e-07
1.38355e-07
-4.52966e-08
6.55393e-07
-1.78523e-07
1.00402e-07
-4.01291e-08
6.80055e-07
6.51748e-08
-3.60999e-08
6.97805e-07
3.20296e-08
-3.3378e-08
7.09565e-07
1.66005e-16
-3.20296e-08
7.15452e-07
-3.20296e-08
-3.20296e-08
7.15452e-07
-6.51748e-08
-3.3378e-08
7.09565e-07
-1.00402e-07
-3.60999e-08
6.97805e-07
-1.38355e-07
-4.01291e-08
6.80055e-07
-4.52966e-08
6.55393e-07
-1.78523e-07
1.42681e-07
-9.12309e-08
6.45477e-07
-1.82512e-07
1.04102e-07
-8.10179e-08
6.71964e-07
6.77982e-08
-7.31127e-08
6.9088e-07
3.3378e-08
-6.77982e-08
7.03343e-07
-2.16282e-17
-6.51748e-08
7.09565e-07
-3.3378e-08
-6.51748e-08
7.09565e-07
-6.77982e-08
-6.77982e-08
7.03343e-07
-1.04102e-07
-7.31127e-08
6.9088e-07
-1.42681e-07
-8.10179e-08
6.71964e-07
-9.12309e-08
6.45477e-07
-1.82512e-07
1.51654e-07
-1.37621e-07
6.25306e-07
-1.91139e-07
1.11646e-07
-1.22896e-07
6.55575e-07
7.31127e-08
-1.11646e-07
6.7694e-07
3.60999e-08
-1.04102e-07
6.9088e-07
-1.31177e-16
-1.00402e-07
6.97805e-07
-3.60999e-08
-1.00402e-07
6.97805e-07
-7.31127e-08
-1.04102e-07
6.9088e-07
-1.11646e-07
-1.11646e-07
6.7694e-07
-1.51654e-07
-1.22896e-07
6.55575e-07
-1.37621e-07
6.25306e-07
-1.91139e-07
1.65066e-07
-1.85792e-07
5.93915e-07
-2.01425e-07
1.22896e-07
-1.65066e-07
6.30184e-07
8.10179e-08
-1.51654e-07
6.55575e-07
4.01291e-08
-1.42681e-07
6.71964e-07
-1.49655e-16
-1.38355e-07
6.80055e-07
-4.01291e-08
-1.38355e-07
6.80055e-07
-8.10179e-08
-1.42681e-07
6.71964e-07
-1.22896e-07
-1.51654e-07
6.55575e-07
-1.65066e-07
-1.65066e-07
6.30184e-07
-1.85792e-07
5.93915e-07
-2.01425e-07
1.85792e-07
5.49776e-07
-2.25671e-07
-2.25671e-07
1.37621e-07
5.93915e-07
-2.01425e-07
9.12309e-08
6.25306e-07
-1.91139e-07
4.52966e-08
6.45477e-07
-1.82512e-07
3.26739e-18
6.55393e-07
-1.78523e-07
-4.52966e-08
6.55393e-07
-1.78523e-07
-9.12309e-08
6.45477e-07
-1.82512e-07
-1.37621e-07
6.25306e-07
-1.91139e-07
-1.85792e-07
5.93915e-07
-2.01425e-07
5.49776e-07
-2.25671e-07
-2.25671e-07
1.2796e-07
1.2796e-07
5.86316e-07
-1.4623e-07
-1.4623e-07
1.00749e-07
1.25634e-07
6.42228e-07
-1.46737e-07
6.88714e-08
1.22181e-07
6.80727e-07
-1.45724e-07
3.47863e-08
1.18889e-07
7.04554e-07
-1.43881e-07
-3.13194e-16
1.17161e-07
7.15956e-07
-1.42938e-07
-3.47863e-08
1.17161e-07
7.15956e-07
-1.42938e-07
-6.88714e-08
1.18889e-07
7.04554e-07
-1.43881e-07
-1.00749e-07
1.22181e-07
6.80727e-07
-1.45724e-07
-1.2796e-07
1.25634e-07
6.42228e-07
-1.46737e-07
1.2796e-07
5.86316e-07
-1.4623e-07
-1.4623e-07
1.25634e-07
1.00749e-07
6.42228e-07
-1.46737e-07
9.69348e-08
9.69348e-08
6.87583e-07
6.53003e-08
9.26825e-08
7.16708e-07
3.27106e-08
8.92401e-08
7.34203e-07
1.12658e-17
8.74521e-08
7.42475e-07
-3.27106e-08
8.74521e-08
7.42475e-07
-6.53003e-08
8.92401e-08
7.34203e-07
-9.69348e-08
9.26825e-08
7.16708e-07
-1.25634e-07
9.69348e-08
6.87583e-07
1.00749e-07
6.42228e-07
-1.46737e-07
1.22181e-07
6.88714e-08
6.80727e-07
-1.45724e-07
9.26825e-08
6.53003e-08
7.16708e-07
6.17133e-08
6.17133e-08
7.38879e-07
3.07333e-08
5.9023e-08
7.52077e-07
1.16299e-16
5.76489e-08
7.58341e-07
-3.07333e-08
5.76489e-08
7.58341e-07
-6.17133e-08
5.9023e-08
7.52077e-07
-9.26825e-08
6.17133e-08
7.38879e-07
-1.22181e-07
6.53003e-08
7.16708e-07
6.88714e-08
6.80727e-07
-1.45724e-07
1.18889e-07
3.47863e-08
7.04554e-07
-1.43881e-07
8.92401e-08
3.27106e-08
7.34203e-07
5.9023e-08
3.07333e-08
7.52077e-07
2.92988e-08
2.92988e-08
7.62792e-07
1.17085e-16
2.8573e-08
7.6794e-07
-2.92988e-08
2.8573e-08
7.6794e-07
-5.9023e-08
2.92988e-08
7.62792e-07
-8.92401e-08
3.07333e-08
7.52077e-07
-1.18889e-07
3.27106e-08
7.34203e-07
3.47863e-08
7.04554e-07
-1.43881e-07
1.17161e-07
-1.30922e-16
7.15956e-07
-1.42938e-07
8.74521e-08
-3.86524e-18
7.42475e-07
5.76489e-08
2.66024e-16
7.58341e-07
2.8573e-08
1.05254e-16
7.6794e-07
2.08625e-18
-1.70914e-16
7.72598e-07
-2.8573e-08
-6.83551e-18
7.72598e-07
-5.76489e-08
2.29596e-16
7.6794e-07
-8.74521e-08
1.59145e-16
7.58341e-07
-1.17161e-07
6.29944e-17
7.42475e-07
6.72936e-17
7.15956e-07
-1.42938e-07
1.17161e-07
-3.47863e-08
7.15956e-07
-1.42938e-07
8.74521e-08
-3.27106e-08
7.42475e-07
5.76489e-08
-3.07333e-08
7.58341e-07
2.8573e-08
-2.92988e-08
7.6794e-07
2.17691e-16
-2.8573e-08
7.72598e-07
-2.8573e-08
-2.8573e-08
7.72598e-07
-5.76489e-08
-2.92988e-08
7.6794e-07
-8.74521e-08
-3.07333e-08
7.58341e-07
-1.17161e-07
-3.27106e-08
7.42475e-07
-3.47863e-08
7.15956e-07
-1.42938e-07
1.18889e-07
-6.88714e-08
7.04554e-07
-1.43881e-07
8.92401e-08
-6.53003e-08
7.34203e-07
5.9023e-08
-6.17133e-08
7.52077e-07
2.92988e-08
-5.9023e-08
7.62792e-07
7.4573e-17
-5.76489e-08
7.6794e-07
-2.92988e-08
-5.76489e-08
7.6794e-07
-5.9023e-08
-5.9023e-08
7.62792e-07
-8.92401e-08
-6.17133e-08
7.52077e-07
-1.18889e-07
-6.53003e-08
7.34203e-07
-6.88714e-08
7.04554e-07
-1.43881e-07
1.22181e-07
-1.00749e-07
6.80727e-07
-1.45724e-07
9.26825e-08
-9.69348e-08
7.16708e-07
6.17133e-08
-9.26825e-08
7.38879e-07
3.07333e-08
-8.92401e-08
7.52077e-07
-7.67031e-17
-8.74521e-08
7.58341e-07
-3.07333e-08
-8.74521e-08
7.58341e-07
-6.17133e-08
-8.92401e-08
7.52077e-07
-9.26825e-08
-9.26825e-08
7.38879e-07
-1.22181e-07
-9.69348e-08
7.16708e-07
-1.00749e-07
6.80727e-07
-1.45724e-07
1.25634e-07
-1.2796e-07
6.42228e-07
-1.46737e-07
9.69348e-08
-1.25634e-07
6.87583e-07
6.53003e-08
-1.22181e-07
7.16708e-07
3.27106e-08
-1.18889e-07
7.34203e-07
-7.29197e-17
-1.17161e-07
7.42475e-07
-3.27106e-08
-1.17161e-07
7.42475e-07
-6.53003e-08
-1.18889e-07
7.34203e-07
-9.69348e-08
-1.22181e-07
7.16708e-07
-1.25634e-07
-1.25634e-07
6.87583e-07
-1.2796e-07
6.42228e-07
-1.46737e-07
1.2796e-07
5.86316e-07
-1.4623e-07
-1.4623e-07
1.00749e-07
6.42228e-07
-1.46737e-07
6.88714e-08
6.80727e-07
-1.45724e-07
3.47863e-08
7.04554e-07
-1.43881e-07
1.17277e-16
7.15956e-07
-1.42938e-07
-3.47863e-08
7.15956e-07
-1.42938e-07
-6.88714e-08
7.04554e-07
-1.43881e-07
-1.00749e-07
6.80727e-07
-1.45724e-07
-1.2796e-07
6.42228e-07
-1.46737e-07
5.86316e-07
-1.4623e-07
-1.4623e-07
9.48088e-08
9.48088e-08
5.96415e-07
-9.98579e-08
-9.98579e-08
7.94454e-08
1.00001e-07
6.64532e-07
-1.06942e-07
5.65815e-08
1.02072e-07
7.11936e-07
-1.10417e-07
2.92976e-08
1.02416e-07
7.41347e-07
-1.11925e-07
-2.14857e-16
1.02389e-07
7.55383e-07
-1.12519e-07
-2.92976e-08
1.02389e-07
7.55383e-07
-1.12519e-07
-5.65815e-08
1.02416e-07
7.41347e-07
-1.11925e-07
-7.94454e-08
1.02072e-07
7.11936e-07
-1.10417e-07
-9.48088e-08
1.00001e-07
6.64532e-07
-1.06942e-07
9.48088e-08
5.96415e-07
-9.98579e-08
-9.98579e-08
1.00001e-07
7.94454e-08
6.64532e-07
-1.06942e-07
8.23951e-08
8.23951e-08
7.22795e-07
5.80804e-08
8.30888e-08
7.60007e-07
2.98921e-08
8.27464e-08
7.82061e-07
5.07577e-16
8.23986e-08
7.92357e-07
-2.98921e-08
8.23986e-08
7.92357e-07
-5.80804e-08
8.27464e-08
7.82061e-07
-8.23951e-08
8.30888e-08
7.60007e-07
-1.00001e-07
8.23951e-08
7.22795e-07
7.94455e-08
6.64532e-07
-1.06942e-07
1.02072e-07
5.65815e-08
7.11936e-07
-1.10417e-07
8.30888e-08
5.80804e-08
7.60007e-07
5.8086e-08
5.8086e-08
7.88884e-07
2.97715e-08
5.75772e-08
8.05561e-07
5.27098e-16
5.72044e-08
8.13307e-07
-2.97715e-08
5.72044e-08
8.13307e-07
-5.8086e-08
5.75772e-08
8.05561e-07
-8.30888e-08
5.8086e-08
7.88884e-07
-1.02072e-07
5.80804e-08
7.60007e-07
5.65815e-08
7.11936e-07
-1.10417e-07
1.02416e-07
2.92976e-08
7.41347e-07
-1.11925e-07
8.27464e-08
2.98921e-08
7.82061e-07
5.75772e-08
2.97715e-08
8.05561e-07
2.94475e-08
2.94475e-08
8.19051e-07
2.67749e-16
2.92277e-08
8.25364e-07
-2.94475e-08
2.92277e-08
8.25364e-07
-5.75772e-08
2.94475e-08
8.19051e-07
-8.27464e-08
2.97715e-08
8.05561e-07
-1.02416e-07
2.98921e-08
7.82061e-07
2.92976e-08
7.41347e-07
-1.11925e-07
1.02389e-07
-2.98212e-16
7.55383e-07
-1.12519e-07
8.23986e-08
4.31037e-16
7.92357e-07
5.72044e-08
6.76408e-16
8.13307e-07
2.92277e-08
3.89391e-16
8.25364e-07
2.16271e-16
2.50593e-16
8.31053e-07
-2.92277e-08
3.43082e-16
8.31053e-07
-5.72044e-08
5.52462e-16
8.25364e-07
-8.23986e-08
2.07847e-16
8.13307e-07
-1.02389e-07
-4.36744e-16
7.92357e-07
-2.98207e-16
7.55383e-07
-1.12519e-07
1.02389e-07
-2.92976e-08
7.55383e-07
-1.12519e-07
8.23986e-08
-2.98921e-08
7.92357e-07
5.72044e-08
-2.97715e-08
8.13307e-07
2.92277e-08
-2.94475e-08
8.25364e-07
4.53584e-16
-2.92277e-08
8.31053e-07
-2.92277e-08
-2.92277e-08
8.31053e-07
-5.72044e-08
-2.94475e-08
8.25364e-07
-8.23986e-08
-2.97715e-08
8.13307e-07
-1.02389e-07
-2.98921e-08
7.92357e-07
-2.92976e-08
7.55383e-07
-1.12519e-07
1.02416e-07
-5.65815e-08
7.41347e-07
-1.11925e-07
8.27464e-08
-5.80804e-08
7.82061e-07
5.75772e-08
-5.8086e-08
8.05561e-07
2.94475e-08
-5.75772e-08
8.19051e-07
2.29854e-16
-5.72044e-08
8.25364e-07
-2.94475e-08
-5.72044e-08
8.25364e-07
-5.75772e-08
-5.75772e-08
8.19051e-07
-8.27464e-08
-5.8086e-08
8.05561e-07
-1.02416e-07
-5.80804e-08
7.82061e-07
-5.65815e-08
7.41347e-07
-1.11925e-07
1.02072e-07
-7.94454e-08
7.11936e-07
-1.10417e-07
8.30888e-08
-8.23951e-08
7.60007e-07
5.8086e-08
-8.30888e-08
7.88884e-07
2.97715e-08
-8.27464e-08
8.05561e-07
-3.11607e-16
-8.23986e-08
8.13307e-07
-2.97715e-08
-8.23986e-08
8.13307e-07
-5.8086e-08
-8.27464e-08
8.05561e-07
-8.30888e-08
-8.30888e-08
7.88884e-07
-1.02072e-07
-8.23951e-08
7.60007e-07
-7.94455e-08
7.11936e-07
-1.10417e-07
1.00001e-07
-9.48088e-08
6.64532e-07
-1.06942e-07
8.23951e-08
-1.00001e-07
7.22795e-07
5.80804e-08
-1.02072e-07
7.60007e-07
2.98921e-08
-1.02416e-07
7.82061e-07
-9.12944e-16
-1.02389e-07
7.92357e-07
-2.98921e-08
-1.02389e-07
7.92357e-07
-5.80804e-08
-1.02416e-07
7.82061e-07
-8.23951e-08
-1.02072e-07
7.60007e-07
-1.00001e-07
-1.00001e-07
7.22795e-07
-9.48088e-08
6.64532e-07
-1.06942e-07
9.48088e-08
5.96415e-07
-9.98579e-08
-9.98579e-08
7.94455e-08
6.64532e-07
-1.06942e-07
5.65815e-08
7.11936e-07
-1.10417e-07
2.92976e-08
7.41347e-07
-1.11925e-07
-2.99794e-16
7.55383e-07
-1.12519e-07
-2.92976e-08
7.55383e-07
-1.12519e-07
-5.65815e-08
7.41347e-07
-1.11925e-07
-7.94454e-08
7.11936e-07
-1.10417e-07
-9.48088e-08
6.64532e-07
-1.06942e-07
5.96415e-07
-9.98579e-08
-9.98579e-08
4.46406e-08
4.46406e-08
5.95747e-07
-4.43067e-08
-4.43067e-08
3.95182e-08
5.09956e-08
6.69553e-07
-5.08937e-08
2.92152e-08
5.49826e-08
7.2201e-07
-5.47535e-08
1.54872e-08
5.72003e-08
7.55032e-07
-5.71575e-08
5.74468e-17
5.8193e-08
7.70916e-07
-5.82385e-08
-1.54872e-08
5.8193e-08
7.70916e-07
-5.82385e-08
-2.92152e-08
5.72003e-08
7.55032e-07
-5.71575e-08
-3.95182e-08
5.49826e-08
7.2201e-07
-5.47535e-08
-4.46406e-08
5.09956e-08
6.69553e-07
-5.08937e-08
4.46406e-08
5.95747e-07
-4.43067e-08
-4.43067e-08
5.09956e-08
3.95182e-08
6.69553e-07
-5.08937e-08
4.45356e-08
4.45356e-08
7.35715e-07
3.27179e-08
4.77229e-08
7.79084e-07
1.72661e-08
4.94523e-08
8.05261e-07
1.16856e-15
5.02083e-08
8.17608e-07
-1.72661e-08
5.02083e-08
8.17608e-07
-3.27179e-08
4.94523e-08
8.05261e-07
-4.45356e-08
4.77229e-08
7.79084e-07
-5.09956e-08
4.45356e-08
7.35715e-07
3.95182e-08
6.69553e-07
-5.08937e-08
5.49826e-08
2.92152e-08
7.2201e-07
-5.47535e-08
4.77229e-08
3.27179e-08
7.79084e-07
3.48897e-08
3.48897e-08
8.1455e-07
1.83622e-08
3.60534e-08
8.35487e-07
9.3215e-16
3.65527e-08
8.45325e-07
-1.83622e-08
3.65527e-08
8.45325e-07
-3.48897e-08
3.60534e-08
8.35487e-07
-4.77229e-08
3.48897e-08
8.1455e-07
-5.49826e-08
3.27179e-08
7.79084e-07
2.92152e-08
7.2201e-07
-5.47535e-08
5.72003e-08
1.54872e-08
7.55032e-07
-5.71575e-08
4.94523e-08
1.72661e-08
8.05261e-07
3.60534e-08
1.83622e-08
8.35487e-07
1.89484e-08
1.89484e-08
8.53261e-07
6.34804e-16
1.91976e-08
8.61668e-07
-1.89484e-08
1.91976e-08
8.61668e-07
-3.60534e-08
1.89484e-08
8.53261e-07
-4.94523e-08
1.83622e-08
8.35487e-07
-5.72003e-08
1.72661e-08
8.05261e-07
1.54872e-08
7.55032e-07
-5.71575e-08
5.8193e-08
8.84164e-17
7.70916e-07
-5.82385e-08
5.02083e-08
1.27329e-15
8.17608e-07
3.65527e-08
1.12701e-15
8.45325e-07
1.91976e-08
7.68952e-16
8.61668e-07
5.91142e-16
6.88536e-16
8.69448e-07
-1.91976e-08
6.64544e-16
8.69448e-07
-3.65527e-08
7.50684e-16
8.61668e-07
-5.02083e-08
3.62675e-16
8.45325e-07
-5.8193e-08
-7.80442e-16
8.17608e-07
-7.63021e-16
7.70916e-07
-5.82385e-08
5.8193e-08
-1.54872e-08
7.70916e-07
-5.82385e-08
5.02083e-08
-1.72661e-08
8.17608e-07
3.65527e-08
-1.83622e-08
8.45325e-07
1.91976e-08
-1.89484e-08
8.61668e-07
6.7321e-16
-1.91976e-08
8.69448e-07
-1.91976e-08
-1.91976e-08
8.69448e-07
-3.65527e-08
-1.89484e-08
8.61668e-07
-5.02083e-08
-1.83622e-08
8.45325e-07
-5.8193e-08
-1.72661e-08
8.17608e-07
-1.54872e-08
7.70916e-07
-5.82385e-08
5.72003e-08
-2.92152e-08
7.55032e-07
-5.71575e-08
4.94523e-08
-3.27179e-08
8.05261e-07
3.60534e-08
-3.48897e-08
8.35487e-07
1.89484e-08
-3.60534e-08
8.53261e-07
4.89679e-16
-3.65527e-08
8.61668e-07
-1.89484e-08
-3.65527e-08
8.61668e-07
-3.60534e-08
-3.60534e-08
8.53261e-07
-4.94523e-08
-3.48897e-08
8.35487e-07
-5.72003e-08
-3.27179e-08
8.05261e-07
-2.92152e-08
7.55032e-07
-5.71575e-08
5.49826e-08
-3.95182e-08
7.2201e-07
-5.47535e-08
4.77229e-08
-4.45356e-08
7.79084e-07
3.48897e-08
-4.77229e-08
8.1455e-07
1.83622e-08
-4.94523e-08
8.35487e-07
-1.05096e-16
-5.02083e-08
8.45325e-07
-1.83622e-08
-5.02083e-08
8.45325e-07
-3.48897e-08
-4.94523e-08
8.35487e-07
-4.77229e-08
-4.77229e-08
8.1455e-07
-5.49826e-08
-4.45356e-08
7.79084e-07
-3.95182e-08
7.2201e-07
-5.47535e-08
5.09956e-08
-4.46406e-08
6.69553e-07
-5.08937e-08
4.45356e-08
-5.09956e-08
7.35715e-07
3.27179e-08
-5.49826e-08
7.79084e-07
1.72661e-08
-5.72003e-08
8.05261e-07
-1.20578e-15
-5.8193e-08
8.17608e-07
-1.72661e-08
-5.8193e-08
8.17608e-07
-3.27179e-08
-5.72003e-08
8.05261e-07
-4.45356e-08
-5.49826e-08
7.79084e-07
-5.09956e-08
-5.09956e-08
7.35715e-07
-4.46406e-08
6.69553e-07
-5.08937e-08
4.46406e-08
5.95747e-07
-4.43067e-08
-4.43067e-08
3.95182e-08
6.69553e-07
-5.08937e-08
2.92152e-08
7.2201e-07
-5.47535e-08
1.54872e-08
7.55032e-07
-5.71575e-08
-6.94218e-16
7.70916e-07
-5.82385e-08
-1.54872e-08
7.70916e-07
-5.82385e-08
-2.92152e-08
7.55032e-07
-5.71575e-08
-3.95182e-08
7.2201e-07
-5.47535e-08
-4.46406e-08
6.69553e-07
-5.08937e-08
5.95747e-07
-4.43067e-08
-4.43067e-08
2.0969e-08
2.0969e-08
5.93407e-07
-1.97992e-08
-1.97992e-08
1.91885e-08
2.48999e-08
6.69764e-07
-2.33307e-08
1.45524e-08
2.76854e-08
7.24721e-07
-2.57607e-08
7.83599e-09
2.94255e-08
7.59678e-07
-2.73553e-08
4.09234e-16
3.02457e-08
7.76602e-07
-2.80956e-08
-7.83599e-09
3.02457e-08
7.76602e-07
-2.80956e-08
-1.45524e-08
2.94255e-08
7.59678e-07
-2.73553e-08
-1.91885e-08
2.76854e-08
7.24721e-07
-2.57607e-08
-2.0969e-08
2.48999e-08
6.69764e-07
-2.33307e-08
2.0969e-08
5.93407e-07
-1.97992e-08
-1.97992e-08
2.48999e-08
1.91885e-08
6.69764e-07
-2.33307e-08
2.27276e-08
2.27276e-08
7.40059e-07
1.72092e-08
2.52513e-08
7.87036e-07
9.24738e-09
2.67931e-08
8.15855e-07
1.01934e-15
2.7515e-08
8.29586e-07
-9.24738e-09
2.7515e-08
8.29586e-07
-1.72092e-08
2.67931e-08
8.15855e-07
-2.27276e-08
2.52513e-08
7.87036e-07
-2.48999e-08
2.27276e-08
7.40059e-07
1.91885e-08
6.69764e-07
-2.33307e-08
2.76854e-08
1.45524e-08
7.24721e-07
-2.57607e-08
2.52513e-08
1.72092e-08
7.87036e-07
1.90876e-08
1.90876e-08
8.26878e-07
1.024e-08
2.02183e-08
8.50909e-07
8.31614e-16
2.07409e-08
8.62339e-07
-1.024e-08
2.07409e-08
8.62339e-07
-1.90876e-08
2.02183e-08
8.50909e-07
-2.52513e-08
1.90876e-08
8.26878e-07
-2.76854e-08
1.72092e-08
7.87036e-07
1.45524e-08
7.24721e-07
-2.57607e-08
2.94255e-08
7.83599e-09
7.59678e-07
-2.73553e-08
2.67931e-08
9.24739e-09
8.15855e-07
2.02183e-08
1.024e-08
8.50909e-07
1.0834e-08
1.0834e-08
8.7203e-07
5.82152e-16
1.11063e-08
8.82136e-07
-1.0834e-08
1.11063e-08
8.82136e-07
-2.02183e-08
1.0834e-08
8.7203e-07
-2.67931e-08
1.024e-08
8.50909e-07
-2.94255e-08
9.24738e-09
8.15855e-07
7.83599e-09
7.59678e-07
-2.73553e-08
3.02457e-08
3.16215e-16
7.76602e-07
-2.80956e-08
2.7515e-08
1.23298e-15
8.29586e-07
2.07409e-08
1.26784e-15
8.62339e-07
1.11063e-08
9.25943e-16
8.82136e-07
5.7118e-16
8.71149e-16
8.91661e-07
-1.11063e-08
8.86328e-16
8.91661e-07
-2.07409e-08
8.33436e-16
8.82136e-07
-2.7515e-08
4.75012e-16
8.62339e-07
-3.02457e-08
-2.92063e-16
8.29586e-07
-4.55855e-16
7.76602e-07
-2.80956e-08
3.02457e-08
-7.83599e-09
7.76602e-07
-2.80956e-08
2.7515e-08
-9.24738e-09
8.29586e-07
2.07409e-08
-1.024e-08
8.62339e-07
1.11063e-08
-1.0834e-08
8.82136e-07
6.39123e-16
-1.11063e-08
8.91661e-07
-1.11063e-08
-1.11063e-08
8.91661e-07
-2.07409e-08
-1.0834e-08
8.82136e-07
-2.7515e-08
-1.024e-08
8.62339e-07
-3.02457e-08
-9.24738e-09
8.29586e-07
-7.83599e-09
7.76602e-07
-2.80956e-08
2.94255e-08
-1.45524e-08
7.59678e-07
-2.73553e-08
2.67931e-08
-1.72092e-08
8.15855e-07
2.02183e-08
-1.90876e-08
8.50909e-07
1.0834e-08
-2.02183e-08
8.7203e-07
4.82146e-16
-2.07409e-08
8.82136e-07
-1.0834e-08
-2.07409e-08
8.82136e-07
-2.02183e-08
-2.02183e-08
8.7203e-07
-2.67931e-08
-1.90876e-08
8.50909e-07
-2.94255e-08
-1.72092e-08
8.15855e-07
-1.45524e-08
7.59678e-07
-2.73553e-08
2.76854e-08
-1.91885e-08
7.24721e-07
-2.57607e-08
2.52513e-08
-2.27276e-08
7.87036e-07
1.90876e-08
-2.52513e-08
8.26878e-07
1.024e-08
-2.67931e-08
8.50909e-07
-7.91053e-17
-2.7515e-08
8.62339e-07
-1.024e-08
-2.7515e-08
8.62339e-07
-1.90876e-08
-2.67931e-08
8.50909e-07
-2.52513e-08
-2.52513e-08
8.26878e-07
-2.76854e-08
-2.27276e-08
7.87036e-07
-1.91885e-08
7.24721e-07
-2.57607e-08
2.48999e-08
-2.0969e-08
6.69764e-07
-2.33307e-08
2.27276e-08
-2.48999e-08
7.40059e-07
1.72092e-08
-2.76854e-08
7.87036e-07
9.24738e-09
-2.94255e-08
8.15855e-07
-7.80962e-16
-3.02457e-08
8.29586e-07
-9.24738e-09
-3.02457e-08
8.29586e-07
-1.72092e-08
-2.94255e-08
8.15855e-07
-2.27276e-08
-2.76854e-08
7.87036e-07
-2.48999e-08
-2.48999e-08
7.40059e-07
-2.0969e-08
6.69764e-07
-2.33307e-08
2.0969e-08
5.93407e-07
-1.97992e-08
-1.97992e-08
1.91885e-08
6.69764e-07
-2.33307e-08
1.45524e-08
7.24721e-07
-2.57607e-08
7.83599e-09
7.59678e-07
-2.73553e-08
-3.61117e-16
7.76602e-07
-2.80956e-08
-7.83599e-09
7.76602e-07
-2.80956e-08
-1.45524e-08
7.59678e-07
-2.73553e-08
-1.91885e-08
7.24721e-07
-2.57607e-08
-2.0969e-08
6.69764e-07
-2.33307e-08
5.93407e-07
-1.97992e-08
-1.97992e-08
7.95735e-09
7.95734e-09
5.91383e-07
-6.94538e-09
-6.94538e-09
7.72512e-09
1.01825e-08
6.6853e-07
-8.71574e-09
6.10145e-09
1.19086e-08
7.24489e-07
-1.00526e-08
3.3654e-09
1.3071e-08
7.60333e-07
-1.099e-08
3.46179e-16
1.36405e-08
7.77767e-07
-1.14407e-08
-3.3654e-09
1.36405e-08
7.77767e-07
-1.14407e-08
-6.10145e-09
1.3071e-08
7.60333e-07
-1.099e-08
-7.72512e-09
1.19086e-08
7.24489e-07
-1.00526e-08
-7.95734e-09
1.01825e-08
6.6853e-07
-8.71574e-09
7.95734e-09
5.91383e-07
-6.94538e-09
-6.94538e-09
1.01825e-08
7.72512e-09
6.6853e-07
-8.71574e-09
9.91234e-09
9.91234e-09
7.406e-07
7.8301e-09
1.1612e-08
7.89415e-07
4.31095e-09
1.27275e-08
8.19718e-07
9.32589e-16
1.32711e-08
8.34267e-07
-4.31095e-09
1.32711e-08
8.34267e-07
-7.8301e-09
1.27275e-08
8.19718e-07
-9.91234e-09
1.1612e-08
7.89415e-07
-1.01825e-08
9.91234e-09
7.406e-07
7.72512e-09
6.6853e-07
-8.71574e-09
1.19086e-08
6.10145e-09
7.24489e-07
-1.00526e-08
1.1612e-08
7.8301e-09
7.89415e-07
9.16062e-09
9.16062e-09
8.31781e-07
5.0326e-09
1.00176e-08
8.57747e-07
7.82294e-16
1.043e-08
8.70213e-07
-5.0326e-09
1.043e-08
8.70213e-07
-9.16061e-09
1.00176e-08
8.57747e-07
-1.1612e-08
9.16061e-09
8.31781e-07
-1.19086e-08
7.8301e-09
7.89415e-07
6.10145e-09
7.24489e-07
-1.00526e-08
1.3071e-08
3.3654e-09
7.60333e-07
-1.099e-08
1.27275e-08
4.31095e-09
8.19718e-07
1.00176e-08
5.0326e-09
8.57747e-07
5.49309e-09
5.49309e-09
8.81078e-07
6.36556e-16
5.71293e-09
8.92346e-07
-5.49309e-09
5.71293e-09
8.92346e-07
-1.00176e-08
5.49309e-09
8.81078e-07
-1.27275e-08
5.0326e-09
8.57747e-07
-1.3071e-08
4.31095e-09
8.19718e-07
3.3654e-09
7.60333e-07
-1.099e-08
1.36405e-08
1.91035e-16
7.77767e-07
-1.14407e-08
1.32711e-08
9.24575e-16
8.34267e-07
1.043e-08
8.54265e-16
8.70213e-07
5.71293e-09
7.45722e-16
8.92346e-07
6.46687e-16
7.73573e-16
9.03087e-07
-5.71293e-09
8.24571e-16
9.03087e-07
-1.043e-08
7.39507e-16
8.92346e-07
-1.32711e-08
4.2629e-16
8.70213e-07
-1.36405e-08
-1.17521e-16
8.34267e-07
-1.71887e-16
7.77767e-07
-1.14407e-08
1.36405e-08
-3.3654e-09
7.77767e-07
-1.14407e-08
1.32711e-08
-4.31095e-09
8.34267e-07
1.043e-08
-5.0326e-09
8.70213e-07
5.71293e-09
-5.49309e-09
8.92346e-07
6.80034e-16
-5.71293e-09
9.03087e-07
-5.71293e-09
-5.71293e-09
9.03087e-07
-1.043e-08
-5.49309e-09
8.92346e-07
-1.32711e-08
-5.0326e-09
8.70213e-07
-1.36405e-08
-4.31095e-09
8.34267e-07
-3.3654e-09
7.77767e-07
-1.14407e-08
1.3071e-08
-6.10145e-09
7.60333e-07
-1.099e-08
1.27275e-08
-7.8301e-09
8.19718e-07
1.00176e-08
-9.16061e-09
8.57747e-07
5.49309e-09
-1.00176e-08
8.81078e-07
5.59401e-16
-1.043e-08
8.92346e-07
-5.49309e-09
-1.043e-08
8.92346e-07
-1.00176e-08
-1.00176e-08
8.81078e-07
-1.27275e-08
-9.16061e-09
8.57747e-07
-1.3071e-08
-7.8301e-09
8.19718e-07
-6.10145e-09
7.60333e-07
-1.099e-08
1.19086e-08
-7.72512e-09
7.24489e-07
-1.00526e-08
1.1612e-08
-9.91234e-09
7.89415e-07
9.16061e-09
-1.1612e-08
8.31781e-07
5.0326e-09
-1.27275e-08
8.57747e-07
8.19694e-17
-1.32711e-08
8.70213e-07
-5.0326e-09
-1.32711e-08
8.70213e-07
-9.16061e-09
-1.27275e-08
8.57747e-07
-1.1612e-08
-1.1612e-08
8.31781e-07
-1.19086e-08
-9.91234e-09
7.89415e-07
-7.72512e-09
7.24489e-07
-1.00526e-08
1.01825e-08
-7.95734e-09
6.6853e-07
-8.71574e-09
9.91234e-09
-1.01825e-08
7.406e-07
7.8301e-09
-1.19086e-08
7.89415e-07
4.31095e-09
-1.3071e-08
8.19718e-07
-5.09263e-16
-1.36405e-08
8.34267e-07
-4.31095e-09
-1.36405e-08
8.34267e-07
-7.8301e-09
-1.3071e-08
8.19718e-07
-9.91234e-09
-1.19086e-08
7.89415e-07
-1.01825e-08
-1.01825e-08
7.406e-07
-7.95734e-09
6.6853e-07
-8.71574e-09
7.95734e-09
5.91383e-07
-6.94538e-09
-6.94538e-09
7.72512e-09
6.6853e-07
-8.71574e-09
6.10145e-09
7.24489e-07
-1.00526e-08
3.3654e-09
7.60333e-07
-1.099e-08
-1.42709e-16
7.77767e-07
-1.14407e-08
-3.3654e-09
7.77767e-07
-1.14407e-08
-6.10145e-09
7.60333e-07
-1.099e-08
-7.72512e-09
7.24489e-07
-1.00526e-08
-7.95734e-09
6.6853e-07
-8.71574e-09
5.91383e-07
-6.94538e-09
-6.94538e-09
2.47104e-09
2.47104e-09
5.90338e-07
-1.94839e-09
-1.94839e-09
2.57916e-09
3.4734e-09
6.67605e-07
-2.65667e-09
2.13456e-09
4.3176e-09
7.23852e-07
-3.23639e-09
1.20974e-09
4.92413e-09
7.60007e-07
-3.67318e-09
5.53673e-16
5.23031e-09
7.77635e-07
-3.88864e-09
-1.20973e-09
5.23031e-09
7.77635e-07
-3.88864e-09
-2.13456e-09
4.92413e-09
7.60007e-07
-3.67318e-09
-2.57916e-09
4.3176e-09
7.23852e-07
-3.23639e-09
-2.47104e-09
3.4734e-09
6.67605e-07
-2.65667e-09
2.47104e-09
5.90338e-07
-1.94839e-09
-1.94839e-09
3.4734e-09
2.57916e-09
6.67605e-07
-2.65667e-09
3.64623e-09
3.64623e-09
7.40254e-07
3.02025e-09
4.54269e-09
7.89816e-07
1.70744e-09
5.16742e-09
8.20787e-07
8.38259e-16
5.48123e-09
8.35723e-07
-1.70744e-09
5.48123e-09
8.35723e-07
-3.02025e-09
5.16742e-09
8.20787e-07
-3.64623e-09
4.54269e-09
7.89816e-07
-3.4734e-09
3.64623e-09
7.40254e-07
2.57916e-09
6.67605e-07
-2.65667e-09
4.3176e-09
2.13456e-09
7.23852e-07
-3.23639e-09
4.54269e-09
3.02025e-09
7.89816e-07
3.75396e-09
3.75396e-09
8.33358e-07
2.11492e-09
4.25408e-09
8.603e-07
8.14519e-16
4.50237e-09
8.73306e-07
-2.11492e-09
4.50237e-09
8.73306e-07
-3.75396e-09
4.25408e-09
8.603e-07
-4.54269e-09
3.75396e-09
8.33358e-07
-4.3176e-09
3.02025e-09
7.89816e-07
2.13456e-09
7.23852e-07
-3.23639e-09
4.92412e-09
1.20974e-09
7.60007e-07
-3.67318e-09
5.16742e-09
1.70744e-09
8.20787e-07
4.25408e-09
2.11492e-09
8.603e-07
2.38946e-09
2.38946e-09
8.84808e-07
7.08413e-16
2.52471e-09
8.96714e-07
-2.38945e-09
2.52471e-09
8.96714e-07
-4.25408e-09
2.38946e-09
8.84808e-07
-5.16742e-09
2.11492e-09
8.603e-07
-4.92413e-09
1.70744e-09
8.20787e-07
1.20973e-09
7.60007e-07
-3.67318e-09
5.23031e-09
2.10923e-16
7.77635e-07
-3.88864e-09
5.48122e-09
5.89819e-16
8.35723e-07
4.50237e-09
8.97015e-16
8.73306e-07
2.52471e-09
8.81745e-16
8.96714e-07
7.14988e-16
8.80071e-16
9.08136e-07
-2.5247e-09
8.42395e-16
9.08136e-07
-4.50237e-09
6.39974e-16
8.96714e-07
-5.48122e-09
3.76471e-16
8.73306e-07
-5.23031e-09
1.80942e-16
8.35723e-07
1.10378e-16
7.77635e-07
-3.88864e-09
5.23031e-09
-1.20973e-09
7.77635e-07
-3.88864e-09
5.48123e-09
-1.70744e-09
8.35723e-07
4.50237e-09
-2.11492e-09
8.73306e-07
2.52471e-09
-2.38945e-09
8.96714e-07
5.94576e-16
-2.5247e-09
9.08136e-07
-2.5247e-09
-2.5247e-09
9.08136e-07
-4.50237e-09
-2.38945e-09
8.96714e-07
-5.48122e-09
-2.11492e-09
8.73306e-07
-5.23031e-09
-1.70744e-09
8.35723e-07
-1.20973e-09
7.77635e-07
-3.88864e-09
4.92413e-09
-2.13456e-09
7.60007e-07
-3.67318e-09
5.16742e-09
-3.02025e-09
8.20787e-07
4.25408e-09
-3.75396e-09
8.603e-07
2.38946e-09
-4.25408e-09
8.84808e-07
3.90048e-16
-4.50237e-09
8.96714e-07
-2.38945e-09
-4.50237e-09
8.96714e-07
-4.25408e-09
-4.25408e-09
8.84808e-07
-5.16742e-09
-3.75396e-09
8.603e-07
-4.92412e-09
-3.02025e-09
8.20787e-07
-2.13456e-09
7.60007e-07
-3.67318e-09
4.3176e-09
-2.57916e-09
7.23852e-07
-3.23639e-09
4.54269e-09
-3.64623e-09
7.89816e-07
3.75396e-09
-4.54269e-09
8.33358e-07
2.11492e-09
-5.16742e-09
8.603e-07
2.76376e-17
-5.48122e-09
8.73306e-07
-2.11492e-09
-5.48122e-09
8.73306e-07
-3.75396e-09
-5.16742e-09
8.603e-07
-4.54269e-09
-4.54269e-09
8.33358e-07
-4.3176e-09
-3.64623e-09
7.89816e-07
-2.57916e-09
7.23852e-07
-3.23639e-09
3.4734e-09
-2.47104e-09
6.67605e-07
-2.65667e-09
3.64623e-09
-3.4734e-09
7.40254e-07
3.02025e-09
-4.3176e-09
7.89816e-07
1.70744e-09
-4.92412e-09
8.20787e-07
-3.04016e-16
-5.23031e-09
8.35723e-07
-1.70744e-09
-5.23031e-09
8.35723e-07
-3.02025e-09
-4.92412e-09
8.20787e-07
-3.64623e-09
-4.3176e-09
7.89816e-07
-3.4734e-09
-3.4734e-09
7.40254e-07
-2.47104e-09
6.67605e-07
-2.65667e-09
2.47104e-09
5.90338e-07
-1.94839e-09
-1.94839e-09
2.57916e-09
6.67605e-07
-2.65667e-09
2.13456e-09
7.23852e-07
-3.23639e-09
1.20973e-09
7.60007e-07
-3.67318e-09
-1.51659e-16
7.77635e-07
-3.88864e-09
-1.20973e-09
7.77635e-07
-3.88864e-09
-2.13456e-09
7.60007e-07
-3.67318e-09
-2.57916e-09
7.23852e-07
-3.23639e-09
-2.47104e-09
6.67605e-07
-2.65667e-09
5.90338e-07
-1.94839e-09
-1.94839e-09
6.40836e-10
6.40836e-10
5.89892e-07
-4.17859e-10
-4.17859e-10
7.43604e-10
1.02734e-09
6.67139e-07
-6.63644e-10
6.54738e-10
1.37435e-09
7.23448e-07
-8.8117e-10
3.83576e-10
1.63621e-09
7.59695e-07
-1.05262e-09
3.43608e-16
1.77121e-09
7.77387e-07
-1.13896e-09
-3.83576e-10
1.77121e-09
7.77387e-07
-1.13896e-09
-6.54737e-10
1.63621e-09
7.59695e-07
-1.05262e-09
-7.43603e-10
1.37434e-09
7.23448e-07
-8.81169e-10
-6.40835e-10
1.02734e-09
6.67139e-07
-6.63644e-10
6.40836e-10
5.89892e-07
-4.17858e-10
-4.17859e-10
1.02734e-09
7.43603e-10
6.67139e-07
-6.63644e-10
1.18381e-09
1.18381e-09
7.39941e-07
1.03393e-09
1.57542e-09
7.89765e-07
6.01141e-10
1.86099e-09
8.20995e-07
5.92923e-16
2.00755e-09
8.36088e-07
-6.0114e-10
2.00755e-09
8.36088e-07
-1.03393e-09
1.86099e-09
8.20995e-07
-1.18381e-09
1.57542e-09
7.89765e-07
-1.02734e-09
1.18381e-09
7.39941e-07
7.43604e-10
6.67139e-07
-6.63644e-10
1.37434e-09
6.54738e-10
7.23448e-07
-8.8117e-10
1.57542e-09
1.03393e-09
7.89765e-07
1.36616e-09
1.36616e-09
8.33777e-07
7.89221e-10
1.60267e-09
8.61135e-07
5.54252e-16
1.72269e-09
8.7438e-07
-7.8922e-10
1.72269e-09
8.7438e-07
-1.36616e-09
1.60267e-09
8.61135e-07
-1.57542e-09
1.36616e-09
8.33777e-07
-1.37434e-09
1.03393e-09
7.89765e-07
6.54738e-10
7.23448e-07
-8.81169e-10
1.63621e-09
3.83576e-10
7.59695e-07
-1.05262e-09
1.86099e-09
6.01141e-10
8.20995e-07
1.60267e-09
7.89221e-10
8.61135e-07
9.21431e-10
9.21431e-10
8.8617e-07
5.35512e-16
9.88035e-10
8.9837e-07
-9.2143e-10
9.88035e-10
8.9837e-07
-1.60267e-09
9.21431e-10
8.8617e-07
-1.86099e-09
7.89221e-10
8.61135e-07
-1.63621e-09