/*--------------------------------*- C++ -*----------------------------------*\
| =========                 |                                                 |
| \\      /  F ield         | OpenFOAM: The Open Source CFD Toolbox           |
|  \\    /   O peration     | Version:  2412                                  |
|   \\  /    A nd           | Website:  www.openfoam.com                      |
|    \\/     M anipulation  |                                                 |
\*---------------------------------------------------------------------------*/
FoamFile
{
    version     2.0;
    format      ascii;
    arch        "LSB;label=32;scalar=64";
    class       volVectorField;
    location    "7.1";
    object      U;
}
// * * * * * * * * * * * * * * * * * * * * * * * * * * * * * * * * * * * * * //

dimensions      [0 1 -1 0 0 0 0];

internalField   nonuniform List<vector> 
15000
(
(0.00121725 0.00121725 0.0104037)
(0.000901093 0.00114142 0.0103594)
(0.000615156 0.00111602 0.0103213)
(0.000361522 0.00109043 0.0102958)
(0.000118801 0.00107859 0.0102837)
(-0.000118801 0.00107859 0.0102837)
(-0.000361522 0.00109043 0.0102958)
(-0.000615156 0.00111602 0.0103213)
(-0.000901093 0.00114142 0.0103594)
(-0.00121725 0.00121725 0.0104037)
(0.00114142 0.000901093 0.0103594)
(0.000851165 0.000851165 0.0103001)
(0.000583284 0.000814659 0.0102599)
(0.000340382 0.000788378 0.0102372)
(0.000111701 0.000775524 0.0102272)
(-0.000111701 0.000775524 0.0102272)
(-0.000340382 0.000788378 0.0102372)
(-0.000583284 0.000814659 0.0102599)
(-0.000851165 0.000851165 0.0103001)
(-0.00114142 0.000901093 0.0103594)
(0.00111602 0.000615156 0.0103213)
(0.000814659 0.000583284 0.0102599)
(0.000553764 0.000553764 0.0102246)
(0.000321144 0.000532071 0.0102058)
(0.000105125 0.000521078 0.0101975)
(-0.000105125 0.000521078 0.0101975)
(-0.000321144 0.000532071 0.0102058)
(-0.000553764 0.000553764 0.0102246)
(-0.000814659 0.000583284 0.0102599)
(-0.00111602 0.000615156 0.0103213)
(0.00109043 0.000361522 0.0102958)
(0.000788378 0.000340382 0.0102372)
(0.000532071 0.000321144 0.0102058)
(0.000306991 0.000306991 0.010189)
(0.000100264 0.000299743 0.0101814)
(-0.000100264 0.000299743 0.0101814)
(-0.000306991 0.000306991 0.010189)
(-0.000532071 0.000321144 0.0102058)
(-0.000788378 0.000340382 0.0102372)
(-0.00109043 0.000361522 0.0102958)
(0.00107859 0.000118801 0.0102837)
(0.000775524 0.000111701 0.0102272)
(0.000521078 0.000105125 0.0101975)
(0.000299743 0.000100264 0.0101814)
(9.77649e-05 9.77649e-05 0.010174)
(-9.77649e-05 9.77649e-05 0.010174)
(-0.000299743 0.000100264 0.0101814)
(-0.000521078 0.000105125 0.0101975)
(-0.000775524 0.000111701 0.0102272)
(-0.00107859 0.000118801 0.0102837)
(0.00107859 -0.000118801 0.0102837)
(0.000775524 -0.000111701 0.0102272)
(0.000521078 -0.000105125 0.0101975)
(0.000299743 -0.000100264 0.0101814)
(9.77649e-05 -9.77649e-05 0.010174)
(-9.77649e-05 -9.77649e-05 0.010174)
(-0.000299743 -0.000100264 0.0101814)
(-0.000521078 -0.000105125 0.0101975)
(-0.000775524 -0.000111701 0.0102272)
(-0.00107859 -0.000118801 0.0102837)
(0.00109043 -0.000361522 0.0102958)
(0.000788378 -0.000340382 0.0102372)
(0.000532071 -0.000321144 0.0102058)
(0.000306991 -0.000306991 0.010189)
(0.000100264 -0.000299743 0.0101814)
(-0.000100264 -0.000299743 0.0101814)
(-0.000306991 -0.000306991 0.010189)
(-0.000532071 -0.000321144 0.0102058)
(-0.000788378 -0.000340382 0.0102372)
(-0.00109043 -0.000361522 0.0102958)
(0.00111602 -0.000615156 0.0103213)
(0.000814659 -0.000583284 0.0102599)
(0.000553764 -0.000553764 0.0102246)
(0.000321144 -0.000532071 0.0102058)
(0.000105125 -0.000521078 0.0101975)
(-0.000105125 -0.000521078 0.0101975)
(-0.000321144 -0.000532071 0.0102058)
(-0.000553764 -0.000553764 0.0102246)
(-0.000814659 -0.000583284 0.0102599)
(-0.00111602 -0.000615156 0.0103213)
(0.00114142 -0.000901093 0.0103594)
(0.000851165 -0.000851165 0.0103001)
(0.000583284 -0.000814659 0.0102599)
(0.000340382 -0.000788378 0.0102372)
(0.000111701 -0.000775524 0.0102272)
(-0.000111701 -0.000775524 0.0102272)
(-0.000340382 -0.000788378 0.0102372)
(-0.000583284 -0.000814659 0.0102599)
(-0.000851165 -0.000851165 0.0103001)
(-0.00114142 -0.000901093 0.0103594)
(0.00121725 -0.00121725 0.0104037)
(0.000901093 -0.00114142 0.0103594)
(0.000615156 -0.00111602 0.0103213)
(0.000361522 -0.00109043 0.0102958)
(0.000118801 -0.00107859 0.0102837)
(-0.000118801 -0.00107859 0.0102837)
(-0.000361522 -0.00109043 0.0102958)
(-0.000615156 -0.00111602 0.0103213)
(-0.000901093 -0.00114142 0.0103594)
(-0.00121725 -0.00121725 0.0104037)
(0.000802481 0.000802481 0.0126628)
(0.000636112 0.000849906 0.0126431)
(0.000453634 0.000878075 0.0125582)
(0.000271549 0.00088936 0.0124732)
(8.99451e-05 0.000894436 0.0124244)
(-8.99451e-05 0.000894436 0.0124244)
(-0.000271549 0.00088936 0.0124732)
(-0.000453634 0.000878075 0.0125582)
(-0.000636112 0.000849906 0.0126431)
(-0.000802481 0.000802481 0.0126628)
(0.000849906 0.000636112 0.0126431)
(0.000660935 0.000660935 0.0124927)
(0.000464133 0.00066855 0.0123149)
(0.000274081 0.000667818 0.0121777)
(9.04011e-05 0.000666666 0.0121058)
(-9.04011e-05 0.000666666 0.0121058)
(-0.000274081 0.000667818 0.0121777)
(-0.000464133 0.00066855 0.0123149)
(-0.000660935 0.000660935 0.0124927)
(-0.000849906 0.000636112 0.0126431)
(0.000878075 0.000453634 0.0125582)
(0.00066855 0.000464133 0.0123149)
(0.000463313 0.000463313 0.012086)
(0.000271213 0.000459113 0.0119242)
(8.91696e-05 0.000456424 0.0118424)
(-8.91696e-05 0.000456424 0.0118424)
(-0.000271213 0.000459113 0.0119242)
(-0.000463313 0.000463313 0.012086)
(-0.00066855 0.000464133 0.0123149)
(-0.000878075 0.000453634 0.0125582)
(0.00088936 0.000271549 0.0124732)
(0.000667818 0.000274081 0.0121777)
(0.000459113 0.000271213 0.0119242)
(0.00026753 0.00026753 0.0117521)
(8.78093e-05 0.000265397 0.0116667)
(-8.78093e-05 0.000265397 0.0116667)
(-0.00026753 0.00026753 0.0117521)
(-0.000459113 0.000271213 0.0119242)
(-0.000667818 0.000274081 0.0121777)
(-0.00088936 0.000271549 0.0124732)
(0.000894436 8.99451e-05 0.0124244)
(0.000666666 9.04011e-05 0.0121058)
(0.000456424 8.91696e-05 0.0118424)
(0.000265397 8.78093e-05 0.0116667)
(8.7041e-05 8.7041e-05 0.0115802)
(-8.7041e-05 8.7041e-05 0.0115802)
(-0.000265397 8.78093e-05 0.0116667)
(-0.000456424 8.91696e-05 0.0118424)
(-0.000666666 9.04011e-05 0.0121058)
(-0.000894436 8.99451e-05 0.0124244)
(0.000894436 -8.99451e-05 0.0124244)
(0.000666666 -9.04011e-05 0.0121058)
(0.000456424 -8.91696e-05 0.0118424)
(0.000265397 -8.78093e-05 0.0116667)
(8.7041e-05 -8.7041e-05 0.0115802)
(-8.7041e-05 -8.7041e-05 0.0115802)
(-0.000265397 -8.78093e-05 0.0116667)
(-0.000456424 -8.91696e-05 0.0118424)
(-0.000666666 -9.04011e-05 0.0121058)
(-0.000894436 -8.99451e-05 0.0124244)
(0.00088936 -0.000271549 0.0124732)
(0.000667818 -0.000274081 0.0121777)
(0.000459113 -0.000271213 0.0119242)
(0.00026753 -0.00026753 0.0117521)
(8.78093e-05 -0.000265397 0.0116667)
(-8.78093e-05 -0.000265397 0.0116667)
(-0.00026753 -0.00026753 0.0117521)
(-0.000459113 -0.000271213 0.0119242)
(-0.000667818 -0.000274081 0.0121777)
(-0.00088936 -0.000271549 0.0124732)
(0.000878075 -0.000453634 0.0125582)
(0.00066855 -0.000464133 0.0123149)
(0.000463313 -0.000463313 0.012086)
(0.000271213 -0.000459113 0.0119242)
(8.91696e-05 -0.000456424 0.0118424)
(-8.91696e-05 -0.000456424 0.0118424)
(-0.000271213 -0.000459113 0.0119242)
(-0.000463313 -0.000463313 0.012086)
(-0.00066855 -0.000464133 0.0123149)
(-0.000878075 -0.000453634 0.0125582)
(0.000849906 -0.000636112 0.0126431)
(0.000660935 -0.000660935 0.0124927)
(0.000464133 -0.00066855 0.0123149)
(0.000274081 -0.000667818 0.0121777)
(9.04011e-05 -0.000666666 0.0121058)
(-9.04011e-05 -0.000666666 0.0121058)
(-0.000274081 -0.000667818 0.0121777)
(-0.000464133 -0.00066855 0.0123149)
(-0.000660935 -0.000660935 0.0124927)
(-0.000849906 -0.000636112 0.0126431)
(0.000802481 -0.000802481 0.0126628)
(0.000636112 -0.000849906 0.0126431)
(0.000453634 -0.000878075 0.0125582)
(0.000271549 -0.00088936 0.0124732)
(8.99451e-05 -0.000894436 0.0124244)
(-8.99451e-05 -0.000894436 0.0124244)
(-0.000271549 -0.00088936 0.0124732)
(-0.000453634 -0.000878075 0.0125582)
(-0.000636112 -0.000849906 0.0126431)
(-0.000802481 -0.000802481 0.0126628)
(0.000584208 0.000584208 0.0125235)
(0.00048931 0.000659094 0.0128054)
(0.000368663 0.000709802 0.0129054)
(0.000228039 0.000739546 0.012921)
(7.68327e-05 0.000753731 0.0129152)
(-7.68327e-05 0.000753731 0.0129152)
(-0.000228039 0.000739546 0.012921)
(-0.000368663 0.000709802 0.0129054)
(-0.00048931 0.000659094 0.0128054)
(-0.000584208 0.000584208 0.0125235)
(0.000659094 0.00048931 0.0128054)
(0.000549327 0.000549327 0.0129211)
(0.000407333 0.000585324 0.0128785)
(0.000249462 0.000604395 0.0128036)
(8.37956e-05 0.000612924 0.0127553)
(-8.37956e-05 0.000612924 0.0127553)
(-0.000249462 0.000604395 0.0128036)
(-0.000407333 0.000585324 0.0128785)
(-0.000549327 0.000549327 0.0129211)
(-0.000659094 0.00048931 0.0128054)
(0.000709802 0.000368663 0.0129054)
(0.000585324 0.000407333 0.0128785)
(0.000429866 0.000429866 0.01274)
(0.000261539 0.000441356 0.0126123)
(8.7654e-05 0.000446309 0.0125415)
(-8.7654e-05 0.000446309 0.0125415)
(-0.000261539 0.000441356 0.0126123)
(-0.000429866 0.000429866 0.01274)
(-0.000585324 0.000407333 0.0128785)
(-0.000709802 0.000368663 0.0129054)
(0.000739546 0.000228039 0.012921)
(0.000604395 0.000249462 0.0128036)
(0.000441356 0.000261539 0.0126123)
(0.000267646 0.000267646 0.0124593)
(8.95981e-05 0.00027024 0.0123791)
(-8.95981e-05 0.00027024 0.0123791)
(-0.000267646 0.000267646 0.0124593)
(-0.000441356 0.000261539 0.0126123)
(-0.000604395 0.000249462 0.0128036)
(-0.000739546 0.000228039 0.012921)
(0.000753731 7.68327e-05 0.0129152)
(0.000612924 8.37956e-05 0.0127553)
(0.000446309 8.7654e-05 0.0125415)
(0.00027024 8.95981e-05 0.0123791)
(9.04182e-05 9.04182e-05 0.0122958)
(-9.04182e-05 9.04182e-05 0.0122958)
(-0.00027024 8.95981e-05 0.0123791)
(-0.000446309 8.7654e-05 0.0125415)
(-0.000612924 8.37956e-05 0.0127553)
(-0.000753731 7.68327e-05 0.0129152)
(0.000753731 -7.68327e-05 0.0129152)
(0.000612924 -8.37956e-05 0.0127553)
(0.000446309 -8.7654e-05 0.0125415)
(0.00027024 -8.95981e-05 0.0123791)
(9.04182e-05 -9.04182e-05 0.0122958)
(-9.04182e-05 -9.04182e-05 0.0122958)
(-0.00027024 -8.95981e-05 0.0123791)
(-0.000446309 -8.7654e-05 0.0125415)
(-0.000612924 -8.37956e-05 0.0127553)
(-0.000753731 -7.68327e-05 0.0129152)
(0.000739546 -0.000228039 0.012921)
(0.000604395 -0.000249462 0.0128036)
(0.000441356 -0.000261539 0.0126123)
(0.000267646 -0.000267646 0.0124593)
(8.95981e-05 -0.00027024 0.0123791)
(-8.95981e-05 -0.00027024 0.0123791)
(-0.000267646 -0.000267646 0.0124593)
(-0.000441356 -0.000261539 0.0126123)
(-0.000604395 -0.000249462 0.0128036)
(-0.000739546 -0.000228039 0.012921)
(0.000709802 -0.000368663 0.0129054)
(0.000585324 -0.000407333 0.0128785)
(0.000429866 -0.000429866 0.01274)
(0.000261539 -0.000441356 0.0126123)
(8.7654e-05 -0.000446309 0.0125415)
(-8.7654e-05 -0.000446309 0.0125415)
(-0.000261539 -0.000441356 0.0126123)
(-0.000429866 -0.000429866 0.01274)
(-0.000585324 -0.000407333 0.0128785)
(-0.000709802 -0.000368663 0.0129054)
(0.000659094 -0.00048931 0.0128054)
(0.000549327 -0.000549327 0.0129211)
(0.000407333 -0.000585324 0.0128785)
(0.000249462 -0.000604395 0.0128036)
(8.37956e-05 -0.000612924 0.0127553)
(-8.37956e-05 -0.000612924 0.0127553)
(-0.000249462 -0.000604395 0.0128036)
(-0.000407333 -0.000585324 0.0128785)
(-0.000549327 -0.000549327 0.0129211)
(-0.000659094 -0.00048931 0.0128054)
(0.000584208 -0.000584208 0.0125235)
(0.00048931 -0.000659094 0.0128054)
(0.000368663 -0.000709802 0.0129054)
(0.000228039 -0.000739546 0.012921)
(7.68327e-05 -0.000753731 0.0129152)
(-7.68327e-05 -0.000753731 0.0129152)
(-0.000228039 -0.000739546 0.012921)
(-0.000368663 -0.000709802 0.0129054)
(-0.00048931 -0.000659094 0.0128054)
(-0.000584208 -0.000584208 0.0125235)
(0.000268921 0.000268921 0.0127424)
(0.000236127 0.000328332 0.0131689)
(0.000187409 0.000371468 0.0133729)
(0.000119323 0.000400314 0.0134525)
(4.08204e-05 0.000414484 0.0134765)
(-4.08204e-05 0.000414484 0.0134765)
(-0.000119323 0.000400314 0.0134525)
(-0.000187409 0.000371468 0.0133729)
(-0.000236127 0.000328332 0.0131689)
(-0.000268921 0.000268921 0.0127424)
(0.000328332 0.000236127 0.0131689)
(0.000290454 0.000290454 0.0134451)
(0.000226464 0.000328942 0.0135022)
(0.000143258 0.000353191 0.0134831)
(4.89053e-05 0.000364951 0.0134595)
(-4.89052e-05 0.000364951 0.0134595)
(-0.000143258 0.000353191 0.0134831)
(-0.000226464 0.000328942 0.0135022)
(-0.000290454 0.000290454 0.0134451)
(-0.000328332 0.000236127 0.0131689)
(0.000371468 0.000187409 0.0133729)
(0.000328942 0.000226464 0.0135022)
(0.000254916 0.000254916 0.0134517)
(0.000160617 0.000272804 0.01337)
(5.47628e-05 0.000281446 0.0133189)
(-5.47628e-05 0.000281446 0.0133189)
(-0.000160617 0.000272804 0.01337)
(-0.000254916 0.000254916 0.0134517)
(-0.000328942 0.000226464 0.0135022)
(-0.000371468 0.000187409 0.0133729)
(0.000400314 0.000119323 0.0134525)
(0.000353191 0.000143258 0.0134831)
(0.000272804 0.000160617 0.01337)
(0.000171557 0.000171557 0.0132563)
(5.84562e-05 0.000176831 0.0131925)
(-5.84562e-05 0.000176831 0.0131925)
(-0.000171557 0.000171557 0.0132563)
(-0.000272804 0.000160617 0.01337)
(-0.000353191 0.000143258 0.0134831)
(-0.000400314 0.000119323 0.0134525)
(0.000414484 4.08204e-05 0.0134765)
(0.000364951 4.89053e-05 0.0134595)
(0.000281446 5.47628e-05 0.0133189)
(0.000176831 5.84562e-05 0.0131925)
(6.02326e-05 6.02326e-05 0.0131242)
(-6.02326e-05 6.02326e-05 0.0131242)
(-0.000176831 5.84562e-05 0.0131925)
(-0.000281446 5.47628e-05 0.0133189)
(-0.000364951 4.89052e-05 0.0134595)
(-0.000414484 4.08204e-05 0.0134765)
(0.000414484 -4.08204e-05 0.0134765)
(0.000364951 -4.89052e-05 0.0134595)
(0.000281446 -5.47628e-05 0.0133189)
(0.000176831 -5.84562e-05 0.0131925)
(6.02326e-05 -6.02326e-05 0.0131242)
(-6.02326e-05 -6.02326e-05 0.0131242)
(-0.000176831 -5.84562e-05 0.0131925)
(-0.000281446 -5.47628e-05 0.0133189)
(-0.000364951 -4.89053e-05 0.0134595)
(-0.000414484 -4.08204e-05 0.0134765)
(0.000400314 -0.000119323 0.0134525)
(0.000353191 -0.000143258 0.0134831)
(0.000272804 -0.000160617 0.01337)
(0.000171557 -0.000171557 0.0132563)
(5.84562e-05 -0.000176831 0.0131925)
(-5.84562e-05 -0.000176831 0.0131925)
(-0.000171557 -0.000171557 0.0132563)
(-0.000272804 -0.000160617 0.01337)
(-0.000353191 -0.000143258 0.0134831)
(-0.000400314 -0.000119323 0.0134525)
(0.000371468 -0.000187409 0.0133729)
(0.000328942 -0.000226464 0.0135022)
(0.000254916 -0.000254916 0.0134517)
(0.000160617 -0.000272804 0.01337)
(5.47628e-05 -0.000281446 0.0133189)
(-5.47628e-05 -0.000281446 0.0133189)
(-0.000160617 -0.000272804 0.01337)
(-0.000254916 -0.000254916 0.0134517)
(-0.000328942 -0.000226464 0.0135022)
(-0.000371468 -0.000187409 0.0133729)
(0.000328332 -0.000236127 0.0131689)
(0.000290454 -0.000290454 0.0134451)
(0.000226464 -0.000328942 0.0135022)
(0.000143258 -0.000353191 0.0134831)
(4.89052e-05 -0.000364951 0.0134595)
(-4.89053e-05 -0.000364951 0.0134595)
(-0.000143258 -0.000353191 0.0134831)
(-0.000226464 -0.000328942 0.0135022)
(-0.000290454 -0.000290454 0.0134451)
(-0.000328332 -0.000236127 0.0131689)
(0.000268921 -0.000268921 0.0127424)
(0.000236127 -0.000328332 0.0131689)
(0.000187409 -0.000371468 0.0133729)
(0.000119323 -0.000400314 0.0134525)
(4.08204e-05 -0.000414484 0.0134765)
(-4.08204e-05 -0.000414484 0.0134765)
(-0.000119323 -0.000400314 0.0134525)
(-0.000187409 -0.000371468 0.0133729)
(-0.000236127 -0.000328332 0.0131689)
(-0.000268921 -0.000268921 0.0127424)
(0.000125058 0.000125058 0.0126586)
(0.000112814 0.000157035 0.0131706)
(9.29072e-05 0.000182425 0.0134449)
(6.03946e-05 0.00020044 0.013573)
(2.08886e-05 0.00020949 0.0136214)
(-2.08886e-05 0.00020949 0.0136214)
(-6.03946e-05 0.00020044 0.013573)
(-9.29072e-05 0.000182425 0.0134449)
(-0.000112814 0.000157035 0.0131706)
(-0.000125058 0.000125058 0.0126586)
(0.000157035 0.000112814 0.0131706)
(0.000145758 0.000145758 0.0135588)
(0.000118239 0.000171086 0.0137)
(7.66402e-05 0.000188134 0.0137364)
(2.64767e-05 0.00019666 0.0137401)
(-2.64767e-05 0.00019666 0.0137401)
(-7.66402e-05 0.000188134 0.0137364)
(-0.000118239 0.000171086 0.0137)
(-0.000145758 0.000145758 0.0135588)
(-0.000157035 0.000112814 0.0131706)
(0.000182425 9.29072e-05 0.0134449)
(0.000171086 0.000118239 0.0137)
(0.00013831 0.00013831 0.0137403)
(8.94444e-05 0.000151738 0.0137167)
(3.08764e-05 0.000158425 0.0136939)
(-3.08764e-05 0.000158425 0.0136939)
(-8.94443e-05 0.000151738 0.0137167)
(-0.000138309 0.00013831 0.0137403)
(-0.000171086 0.000118239 0.0137)
(-0.000182425 9.29072e-05 0.0134449)
(0.00020044 6.03946e-05 0.013573)
(0.000188134 7.66402e-05 0.0137364)
(0.000151738 8.94444e-05 0.0137167)
(9.79677e-05 9.79677e-05 0.0136619)
(3.37969e-05 0.000102189 0.0136265)
(-3.37968e-05 0.000102189 0.0136265)
(-9.79677e-05 9.79677e-05 0.0136619)
(-0.000151738 8.94444e-05 0.0137167)
(-0.000188134 7.66402e-05 0.0137364)
(-0.00020044 6.03946e-05 0.013573)
(0.00020949 2.08886e-05 0.0136214)
(0.00019666 2.64767e-05 0.0137401)
(0.000158425 3.08764e-05 0.0136939)
(0.000102189 3.37969e-05 0.0136265)
(3.52379e-05 3.52379e-05 0.0135865)
(-3.52378e-05 3.52379e-05 0.0135865)
(-0.000102189 3.37969e-05 0.0136265)
(-0.000158425 3.08764e-05 0.0136939)
(-0.00019666 2.64767e-05 0.0137401)
(-0.00020949 2.08886e-05 0.0136214)
(0.00020949 -2.08886e-05 0.0136214)
(0.00019666 -2.64767e-05 0.0137401)
(0.000158425 -3.08764e-05 0.0136939)
(0.000102189 -3.37968e-05 0.0136265)
(3.52379e-05 -3.52378e-05 0.0135865)
(-3.52378e-05 -3.52378e-05 0.0135865)
(-0.000102189 -3.37968e-05 0.0136265)
(-0.000158425 -3.08764e-05 0.0136939)
(-0.00019666 -2.64767e-05 0.0137401)
(-0.00020949 -2.08886e-05 0.0136214)
(0.00020044 -6.03946e-05 0.013573)
(0.000188134 -7.66402e-05 0.0137364)
(0.000151738 -8.94443e-05 0.0137167)
(9.79677e-05 -9.79677e-05 0.0136619)
(3.37969e-05 -0.000102189 0.0136265)
(-3.37969e-05 -0.000102189 0.0136265)
(-9.79677e-05 -9.79677e-05 0.0136619)
(-0.000151738 -8.94444e-05 0.0137167)
(-0.000188134 -7.66402e-05 0.0137364)
(-0.00020044 -6.03946e-05 0.013573)
(0.000182425 -9.29072e-05 0.0134449)
(0.000171086 -0.000118239 0.0137)
(0.00013831 -0.00013831 0.0137403)
(8.94444e-05 -0.000151738 0.0137167)
(3.08764e-05 -0.000158425 0.0136939)
(-3.08764e-05 -0.000158425 0.0136939)
(-8.94444e-05 -0.000151738 0.0137167)
(-0.000138309 -0.000138309 0.0137403)
(-0.000171086 -0.000118239 0.0137)
(-0.000182425 -9.29072e-05 0.0134449)
(0.000157035 -0.000112814 0.0131706)
(0.000145758 -0.000145758 0.0135588)
(0.000118239 -0.000171086 0.0137)
(7.66402e-05 -0.000188134 0.0137364)
(2.64767e-05 -0.00019666 0.0137401)
(-2.64767e-05 -0.00019666 0.0137401)
(-7.66402e-05 -0.000188134 0.0137364)
(-0.000118239 -0.000171086 0.0137)
(-0.000145758 -0.000145758 0.0135588)
(-0.000157035 -0.000112814 0.0131706)
(0.000125058 -0.000125058 0.0126586)
(0.000112814 -0.000157035 0.0131706)
(9.29072e-05 -0.000182425 0.0134449)
(6.03946e-05 -0.00020044 0.013573)
(2.08886e-05 -0.00020949 0.0136214)
(-2.08886e-05 -0.00020949 0.0136214)
(-6.03946e-05 -0.00020044 0.013573)
(-9.29072e-05 -0.000182425 0.0134449)
(-0.000112814 -0.000157035 0.0131706)
(-0.000125058 -0.000125058 0.0126586)
(4.61854e-05 4.61854e-05 0.0125978)
(4.41194e-05 6.20684e-05 0.0131362)
(3.85083e-05 7.55264e-05 0.0134376)
(2.58276e-05 8.56006e-05 0.013587)
(9.07874e-06 9.07736e-05 0.0136468)
(-9.07873e-06 9.07736e-05 0.0136468)
(-2.58276e-05 8.56006e-05 0.013587)
(-3.85083e-05 7.55264e-05 0.0134376)
(-4.41194e-05 6.20684e-05 0.0131362)
(-4.61854e-05 4.61854e-05 0.0125978)
(6.20684e-05 4.41194e-05 0.0131362)
(6.19657e-05 6.19657e-05 0.0135711)
(5.31246e-05 7.67308e-05 0.013754)
(3.55783e-05 8.72375e-05 0.0138211)
(1.24851e-05 9.26329e-05 0.0138409)
(-1.24851e-05 9.26329e-05 0.0138409)
(-3.55783e-05 8.72375e-05 0.0138211)
(-5.31246e-05 7.67309e-05 0.013754)
(-6.19658e-05 6.19658e-05 0.0135711)
(-6.20684e-05 4.41194e-05 0.0131362)
(7.55264e-05 3.85083e-05 0.0134376)
(7.67308e-05 5.31246e-05 0.013754)
(6.55418e-05 6.55418e-05 0.0138466)
(4.37835e-05 7.4264e-05 0.01386)
(1.53448e-05 7.87145e-05 0.0138561)
(-1.53448e-05 7.87145e-05 0.0138561)
(-4.37835e-05 7.4264e-05 0.01386)
(-6.55418e-05 6.55418e-05 0.0138466)
(-7.67308e-05 5.31246e-05 0.013754)
(-7.55264e-05 3.85083e-05 0.0134376)
(8.56006e-05 2.58276e-05 0.013587)
(8.72375e-05 3.55783e-05 0.0138211)
(7.4264e-05 4.37835e-05 0.01386)
(4.94861e-05 4.94861e-05 0.0138456)
(1.73225e-05 5.23741e-05 0.0138306)
(-1.73225e-05 5.23741e-05 0.0138306)
(-4.94861e-05 4.94861e-05 0.0138456)
(-7.4264e-05 4.37835e-05 0.01386)
(-8.72375e-05 3.55783e-05 0.0138211)
(-8.56006e-05 2.58276e-05 0.013587)
(9.07735e-05 9.07874e-06 0.0136468)
(9.26329e-05 1.24851e-05 0.0138409)
(7.87145e-05 1.53448e-05 0.0138561)
(5.23741e-05 1.73225e-05 0.0138306)
(1.832e-05 1.832e-05 0.0138115)
(-1.832e-05 1.83201e-05 0.0138115)
(-5.23741e-05 1.73225e-05 0.0138306)
(-7.87145e-05 1.53448e-05 0.0138561)
(-9.26329e-05 1.24851e-05 0.0138409)
(-9.07735e-05 9.07873e-06 0.0136468)
(9.07735e-05 -9.07873e-06 0.0136468)
(9.26329e-05 -1.24851e-05 0.0138409)
(7.87145e-05 -1.53448e-05 0.0138561)
(5.23741e-05 -1.73225e-05 0.0138306)
(1.832e-05 -1.832e-05 0.0138115)
(-1.832e-05 -1.832e-05 0.0138115)
(-5.23741e-05 -1.73225e-05 0.0138306)
(-7.87145e-05 -1.53448e-05 0.0138561)
(-9.26329e-05 -1.24851e-05 0.0138409)
(-9.07735e-05 -9.07873e-06 0.0136468)
(8.56006e-05 -2.58276e-05 0.013587)
(8.72375e-05 -3.55783e-05 0.0138211)
(7.4264e-05 -4.37835e-05 0.01386)
(4.94861e-05 -4.94861e-05 0.0138456)
(1.73225e-05 -5.23741e-05 0.0138306)
(-1.73225e-05 -5.23741e-05 0.0138306)
(-4.94861e-05 -4.94861e-05 0.0138456)
(-7.4264e-05 -4.37835e-05 0.01386)
(-8.72375e-05 -3.55783e-05 0.0138211)
(-8.56006e-05 -2.58276e-05 0.013587)
(7.55264e-05 -3.85083e-05 0.0134376)
(7.67308e-05 -5.31246e-05 0.013754)
(6.55418e-05 -6.55418e-05 0.0138466)
(4.37835e-05 -7.4264e-05 0.01386)
(1.53448e-05 -7.87145e-05 0.0138561)
(-1.53448e-05 -7.87145e-05 0.0138561)
(-4.37835e-05 -7.4264e-05 0.01386)
(-6.55418e-05 -6.55418e-05 0.0138466)
(-7.67308e-05 -5.31246e-05 0.013754)
(-7.55264e-05 -3.85083e-05 0.0134376)
(6.20684e-05 -4.41194e-05 0.0131362)
(6.19658e-05 -6.19657e-05 0.0135711)
(5.31246e-05 -7.67308e-05 0.013754)
(3.55783e-05 -8.72375e-05 0.0138211)
(1.24851e-05 -9.26329e-05 0.0138409)
(-1.24851e-05 -9.26329e-05 0.0138409)
(-3.55783e-05 -8.72375e-05 0.0138211)
(-5.31246e-05 -7.67308e-05 0.013754)
(-6.19657e-05 -6.19657e-05 0.0135711)
(-6.20684e-05 -4.41194e-05 0.0131362)
(4.61854e-05 -4.61854e-05 0.0125978)
(4.41194e-05 -6.20683e-05 0.0131362)
(3.85083e-05 -7.55264e-05 0.0134376)
(2.58276e-05 -8.56006e-05 0.013587)
(9.07873e-06 -9.07735e-05 0.0136468)
(-9.07873e-06 -9.07735e-05 0.0136468)
(-2.58276e-05 -8.56006e-05 0.013587)
(-3.85083e-05 -7.55264e-05 0.0134376)
(-4.41193e-05 -6.20684e-05 0.0131362)
(-4.61854e-05 -4.61854e-05 0.0125978)
(1.38438e-05 1.38438e-05 0.0125673)
(1.42158e-05 2.02711e-05 0.0131132)
(1.33043e-05 2.61133e-05 0.0134246)
(9.23378e-06 3.07397e-05 0.0135828)
(3.30922e-06 3.31664e-05 0.0136477)
(-3.30921e-06 3.31664e-05 0.0136477)
(-9.23377e-06 3.07397e-05 0.0135828)
(-1.33043e-05 2.61133e-05 0.0134246)
(-1.42158e-05 2.02711e-05 0.0131132)
(-1.38438e-05 1.38438e-05 0.0125673)
(2.02711e-05 1.42158e-05 0.0131132)
(2.21367e-05 2.21367e-05 0.0135661)
(2.02288e-05 2.91976e-05 0.013768)
(1.4034e-05 3.45043e-05 0.0138505)
(5.01024e-06 3.72974e-05 0.0138787)
(-5.01023e-06 3.72974e-05 0.0138787)
(-1.4034e-05 3.45043e-05 0.0138505)
(-2.02288e-05 2.91976e-05 0.013768)
(-2.21367e-05 2.21367e-05 0.0135661)
(-2.02711e-05 1.42158e-05 0.0131132)
(2.61133e-05 1.33043e-05 0.0134246)
(2.91976e-05 2.02288e-05 0.013768)
(2.65269e-05 2.65269e-05 0.0138872)
(1.83417e-05 3.11678e-05 0.0139208)
(6.53178e-06 3.35907e-05 0.0139276)
(-6.53177e-06 3.35907e-05 0.0139276)
(-1.83417e-05 3.11678e-05 0.0139208)
(-2.65269e-05 2.65269e-05 0.0138872)
(-2.91976e-05 2.02288e-05 0.013768)
(-2.61133e-05 1.33043e-05 0.0134246)
(3.07397e-05 9.23378e-06 0.0135828)
(3.45043e-05 1.4034e-05 0.0138505)
(3.11678e-05 1.83417e-05 0.0139208)
(2.14694e-05 2.14694e-05 0.0139295)
(7.62997e-06 2.30886e-05 0.0139265)
(-7.62997e-06 2.30886e-05 0.0139265)
(-2.14694e-05 2.14694e-05 0.0139295)
(-3.11678e-05 1.83417e-05 0.0139208)
(-3.45043e-05 1.4034e-05 0.0138505)
(-3.07397e-05 9.23378e-06 0.0135828)
(3.31664e-05 3.30922e-06 0.0136477)
(3.72974e-05 5.01024e-06 0.0138787)
(3.35907e-05 6.53178e-06 0.0139276)
(2.30886e-05 7.62998e-06 0.0139265)
(8.19623e-06 8.19623e-06 0.0139199)
(-8.19622e-06 8.19623e-06 0.0139199)
(-2.30886e-05 7.62997e-06 0.0139265)
(-3.35907e-05 6.53178e-06 0.0139276)
(-3.72974e-05 5.01023e-06 0.0138787)
(-3.31664e-05 3.30921e-06 0.0136477)
(3.31664e-05 -3.30921e-06 0.0136477)
(3.72974e-05 -5.01023e-06 0.0138787)
(3.35907e-05 -6.53177e-06 0.0139276)
(2.30886e-05 -7.62996e-06 0.0139265)
(8.19623e-06 -8.19622e-06 0.0139199)
(-8.19622e-06 -8.19622e-06 0.0139199)
(-2.30886e-05 -7.62997e-06 0.0139265)
(-3.35907e-05 -6.53178e-06 0.0139276)
(-3.72974e-05 -5.01023e-06 0.0138787)
(-3.31664e-05 -3.30921e-06 0.0136477)
(3.07397e-05 -9.23378e-06 0.0135828)
(3.45043e-05 -1.4034e-05 0.0138505)
(3.11678e-05 -1.83417e-05 0.0139208)
(2.14694e-05 -2.14694e-05 0.0139295)
(7.62997e-06 -2.30886e-05 0.0139265)
(-7.62997e-06 -2.30886e-05 0.0139265)
(-2.14694e-05 -2.14694e-05 0.0139295)
(-3.11678e-05 -1.83417e-05 0.0139208)
(-3.45043e-05 -1.4034e-05 0.0138505)
(-3.07397e-05 -9.23377e-06 0.0135828)
(2.61133e-05 -1.33043e-05 0.0134246)
(2.91976e-05 -2.02288e-05 0.013768)
(2.65269e-05 -2.65269e-05 0.0138872)
(1.83417e-05 -3.11678e-05 0.0139208)
(6.53178e-06 -3.35907e-05 0.0139276)
(-6.53178e-06 -3.35907e-05 0.0139276)
(-1.83417e-05 -3.11678e-05 0.0139208)
(-2.65269e-05 -2.65269e-05 0.0138872)
(-2.91976e-05 -2.02288e-05 0.013768)
(-2.61133e-05 -1.33043e-05 0.0134246)
(2.02711e-05 -1.42158e-05 0.0131132)
(2.21367e-05 -2.21367e-05 0.0135661)
(2.02288e-05 -2.91976e-05 0.013768)
(1.4034e-05 -3.45043e-05 0.0138505)
(5.01023e-06 -3.72974e-05 0.0138787)
(-5.01023e-06 -3.72974e-05 0.0138787)
(-1.4034e-05 -3.45043e-05 0.0138505)
(-2.02288e-05 -2.91976e-05 0.013768)
(-2.21366e-05 -2.21367e-05 0.0135661)
(-2.02711e-05 -1.42158e-05 0.0131132)
(1.38438e-05 -1.38438e-05 0.0125673)
(1.42158e-05 -2.02711e-05 0.0131132)
(1.33043e-05 -2.61133e-05 0.0134246)
(9.23378e-06 -3.07397e-05 0.0135828)
(3.30921e-06 -3.31664e-05 0.0136477)
(-3.30921e-06 -3.31664e-05 0.0136477)
(-9.23377e-06 -3.07397e-05 0.0135828)
(-1.33043e-05 -2.61133e-05 0.0134246)
(-1.42158e-05 -2.02711e-05 0.0131132)
(-1.38438e-05 -1.38438e-05 0.0125673)
(3.39164e-06 3.39165e-06 0.0125532)
(3.89718e-06 5.63885e-06 0.0131001)
(4.01988e-06 7.81246e-06 0.0134144)
(2.91114e-06 9.63094e-06 0.0135757)
(1.06954e-06 1.06013e-05 0.0136425)
(-1.06954e-06 1.06013e-05 0.0136425)
(-2.91114e-06 9.63094e-06 0.0135757)
(-4.01988e-06 7.81246e-06 0.0134144)
(-3.89718e-06 5.63885e-06 0.0131001)
(-3.39164e-06 3.39164e-06 0.0125532)
(5.63885e-06 3.89718e-06 0.0131001)
(6.93452e-06 6.93452e-06 0.0135587)
(6.8263e-06 9.81556e-06 0.0137681)
(4.91865e-06 1.20818e-05 0.0138571)
(1.78911e-06 1.32986e-05 0.0138891)
(-1.7891e-06 1.32986e-05 0.0138891)
(-4.91865e-06 1.20818e-05 0.0138571)
(-6.8263e-06 9.81556e-06 0.0137681)
(-6.93452e-06 6.93452e-06 0.0135587)
(-5.63885e-06 3.89718e-06 0.0131001)
(7.81246e-06 4.01988e-06 0.0134144)
(9.81555e-06 6.8263e-06 0.0137681)
(9.52835e-06 9.52835e-06 0.0138989)
(6.82102e-06 1.16022e-05 0.013942)
(2.46847e-06 1.27055e-05 0.013954)
(-2.46847e-06 1.27055e-05 0.013954)
(-6.82101e-06 1.16022e-05 0.013942)
(-9.52835e-06 9.52835e-06 0.0138989)
(-9.81555e-06 6.8263e-06 0.0137681)
(-7.81246e-06 4.01988e-06 0.0134144)
(9.63094e-06 2.91114e-06 0.0135757)
(1.20818e-05 4.91865e-06 0.0138571)
(1.16022e-05 6.82102e-06 0.013942)
(8.2565e-06 8.2565e-06 0.0139621)
(2.97788e-06 9.01351e-06 0.0139651)
(-2.97787e-06 9.01351e-06 0.0139651)
(-8.25649e-06 8.2565e-06 0.0139621)
(-1.16022e-05 6.82102e-06 0.013942)
(-1.20818e-05 4.91865e-06 0.0138571)
(-9.63094e-06 2.91114e-06 0.0135757)
(1.06013e-05 1.06954e-06 0.0136425)
(1.32986e-05 1.78911e-06 0.0138891)
(1.27055e-05 2.46848e-06 0.013954)
(9.01351e-06 2.97788e-06 0.0139651)
(3.24551e-06 3.24551e-06 0.0139649)
(-3.2455e-06 3.24551e-06 0.0139649)
(-9.0135e-06 2.97788e-06 0.0139651)
(-1.27055e-05 2.46847e-06 0.013954)
(-1.32986e-05 1.78911e-06 0.0138891)
(-1.06013e-05 1.06954e-06 0.0136425)
(1.06013e-05 -1.06954e-06 0.0136425)
(1.32986e-05 -1.7891e-06 0.0138891)
(1.27055e-05 -2.46847e-06 0.013954)
(9.01351e-06 -2.97787e-06 0.0139651)
(3.24551e-06 -3.2455e-06 0.0139649)
(-3.2455e-06 -3.2455e-06 0.0139649)
(-9.0135e-06 -2.97787e-06 0.0139651)
(-1.27055e-05 -2.46847e-06 0.013954)
(-1.32986e-05 -1.7891e-06 0.0138891)
(-1.06013e-05 -1.06954e-06 0.0136425)
(9.63094e-06 -2.91114e-06 0.0135757)
(1.20818e-05 -4.91865e-06 0.0138571)
(1.16022e-05 -6.82101e-06 0.013942)
(8.2565e-06 -8.2565e-06 0.0139621)
(2.97788e-06 -9.0135e-06 0.0139651)
(-2.97787e-06 -9.0135e-06 0.0139651)
(-8.25649e-06 -8.25649e-06 0.0139621)
(-1.16022e-05 -6.82101e-06 0.013942)
(-1.20818e-05 -4.91864e-06 0.0138571)
(-9.63094e-06 -2.91113e-06 0.0135757)
(7.81245e-06 -4.01988e-06 0.0134144)
(9.81556e-06 -6.8263e-06 0.0137681)
(9.52835e-06 -9.52835e-06 0.0138989)
(6.82102e-06 -1.16022e-05 0.013942)
(2.46847e-06 -1.27055e-05 0.013954)
(-2.46847e-06 -1.27055e-05 0.013954)
(-6.82101e-06 -1.16022e-05 0.013942)
(-9.52834e-06 -9.52834e-06 0.0138989)
(-9.81555e-06 -6.82629e-06 0.0137681)
(-7.81245e-06 -4.01987e-06 0.0134144)
(5.63885e-06 -3.89718e-06 0.0131001)
(6.93452e-06 -6.93452e-06 0.0135587)
(6.8263e-06 -9.81555e-06 0.0137681)
(4.91865e-06 -1.20818e-05 0.0138571)
(1.78911e-06 -1.32986e-05 0.0138891)
(-1.78911e-06 -1.32986e-05 0.0138891)
(-4.91865e-06 -1.20818e-05 0.0138571)
(-6.82629e-06 -9.81555e-06 0.0137681)
(-6.93452e-06 -6.93452e-06 0.0135587)
(-5.63885e-06 -3.89717e-06 0.0131001)
(3.39164e-06 -3.39164e-06 0.0125532)
(3.89717e-06 -5.63885e-06 0.0131001)
(4.01988e-06 -7.81246e-06 0.0134144)
(2.91114e-06 -9.63094e-06 0.0135757)
(1.06954e-06 -1.06013e-05 0.0136425)