/*--------------------------------*- C++ -*----------------------------------*\
| =========                 |                                                 |
| \\      /  F ield         | OpenFOAM: The Open Source CFD Toolbox           |
|  \\    /   O peration     | Version:  2412                                  |
|   \\  /    A nd           | Website:  www.openfoam.com                      |
|    \\/     M anipulation  |                                                 |
\*---------------------------------------------------------------------------*/
FoamFile
{
    version     2.0;
    format      ascii;
    arch        "LSB;label=32;scalar=64";
    class       surfaceScalarField;
    location    "8.2";
    object      phi;
}
// * * * * * * * * * * * * * * * * * * * * * * * * * * * * * * * * * * * * * //

dimensions      [0 3 -1 0 0 0 0];

oriented        oriented;

internalField   nonuniform List<scalar> 
43700
(
1.84292e-07
1.84292e-07
5.49863e-07
-2.24214e-07
-2.24214e-07
1.36321e-07
1.634e-07
5.9369e-07
-1.99736e-07
9.03009e-08
1.49953e-07
6.24806e-07
-1.89308e-07
4.48182e-08
1.41007e-07
6.44799e-07
-1.8061e-07
8.0627e-17
1.36711e-07
6.54634e-07
-1.76598e-07
-4.48182e-08
1.36711e-07
6.54634e-07
-1.76598e-07
-9.03009e-08
1.41007e-07
6.44799e-07
-1.8061e-07
-1.36321e-07
1.49953e-07
6.24806e-07
-1.89308e-07
-1.84292e-07
1.634e-07
5.9369e-07
-1.99736e-07
1.84292e-07
5.49863e-07
-2.24214e-07
-2.24214e-07
1.634e-07
1.36321e-07
5.9369e-07
-1.99736e-07
1.21552e-07
1.21552e-07
6.29541e-07
8.01261e-08
1.10383e-07
6.54685e-07
3.96961e-08
1.02949e-07
6.70984e-07
5.11292e-17
9.93181e-08
6.79061e-07
-3.96961e-08
9.93181e-08
6.79061e-07
-8.01261e-08
1.02949e-07
6.70984e-07
-1.21552e-07
1.10383e-07
6.54685e-07
-1.634e-07
1.21552e-07
6.29541e-07
1.36321e-07
5.9369e-07
-1.99736e-07
1.49953e-07
9.03009e-08
6.24806e-07
-1.89308e-07
1.10383e-07
8.01261e-08
6.54685e-07
7.23458e-08
7.23458e-08
6.75948e-07
3.57532e-08
6.7154e-08
6.8995e-07
1.35385e-16
6.46013e-08
6.96948e-07
-3.57532e-08
6.46013e-08
6.96948e-07
-7.23458e-08
6.7154e-08
6.8995e-07
-1.10383e-07
7.23458e-08
6.75948e-07
-1.49953e-07
8.01261e-08
6.54685e-07
9.03009e-08
6.24806e-07
-1.89308e-07
1.41007e-07
4.48182e-08
6.44799e-07
-1.8061e-07
1.02949e-07
3.96961e-08
6.70984e-07
6.7154e-08
3.57532e-08
6.8995e-07
3.31074e-08
3.31074e-08
7.02596e-07
-5.29111e-17
3.18007e-08
7.0895e-07
-3.31074e-08
3.18007e-08
7.0895e-07
-6.7154e-08
3.31074e-08
7.02596e-07
-1.02949e-07
3.57532e-08
6.8995e-07
-1.41007e-07
3.96961e-08
6.70984e-07
4.48182e-08
6.44799e-07
-1.8061e-07
1.36711e-07
1.23719e-16
6.54634e-07
-1.76598e-07
9.93181e-08
1.00166e-16
6.79061e-07
6.46013e-08
-2.30196e-18
6.96948e-07
3.18007e-08
-6.13962e-17
7.0895e-07
-3.2579e-17
-2.91494e-17
7.14994e-07
-3.18007e-08
-1.13019e-16
7.14994e-07
-6.46013e-08
3.17214e-17
7.0895e-07
-9.93181e-08
1.79334e-16
6.96948e-07
-1.36711e-07
2.19691e-16
6.79061e-07
6.34883e-17
6.54634e-07
-1.76598e-07
1.36711e-07
-4.48182e-08
6.54634e-07
-1.76598e-07
9.93181e-08
-3.96961e-08
6.79061e-07
6.46013e-08
-3.57532e-08
6.96948e-07
3.18007e-08
-3.31074e-08
7.0895e-07
-1.49649e-16
-3.18007e-08
7.14994e-07
-3.18007e-08
-3.18007e-08
7.14994e-07
-6.46013e-08
-3.31074e-08
7.0895e-07
-9.93181e-08
-3.57532e-08
6.96948e-07
-1.36711e-07
-3.96961e-08
6.79061e-07
-4.48182e-08
6.54634e-07
-1.76598e-07
1.41007e-07
-9.03009e-08
6.44799e-07
-1.8061e-07
1.02949e-07
-8.01261e-08
6.70984e-07
6.7154e-08
-7.23458e-08
6.8995e-07
3.31074e-08
-6.7154e-08
7.02596e-07
1.56052e-16
-6.46013e-08
7.0895e-07
-3.31074e-08
-6.46013e-08
7.0895e-07
-6.7154e-08
-6.7154e-08
7.02596e-07
-1.02949e-07
-7.23458e-08
6.8995e-07
-1.41007e-07
-8.01261e-08
6.70984e-07
-9.03009e-08
6.44799e-07
-1.8061e-07
1.49953e-07
-1.36321e-07
6.24806e-07
-1.89308e-07
1.10383e-07
-1.21552e-07
6.54685e-07
7.23458e-08
-1.10383e-07
6.75948e-07
3.57532e-08
-1.02949e-07
6.8995e-07
1.76189e-16
-9.93181e-08
6.96948e-07
-3.57532e-08
-9.93181e-08
6.96948e-07
-7.23458e-08
-1.02949e-07
6.8995e-07
-1.10383e-07
-1.10383e-07
6.75948e-07
-1.49953e-07
-1.21552e-07
6.54685e-07
-1.36321e-07
6.24806e-07
-1.89308e-07
1.634e-07
-1.84292e-07
5.9369e-07
-1.99736e-07
1.21552e-07
-1.634e-07
6.29541e-07
8.01261e-08
-1.49953e-07
6.54685e-07
3.96961e-08
-1.41007e-07
6.70984e-07
8.80467e-17
-1.36711e-07
6.79061e-07
-3.96961e-08
-1.36711e-07
6.79061e-07
-8.01261e-08
-1.41007e-07
6.70984e-07
-1.21552e-07
-1.49953e-07
6.54685e-07
-1.634e-07
-1.634e-07
6.29541e-07
-1.84292e-07
5.9369e-07
-1.99736e-07
1.84292e-07
5.49863e-07
-2.24214e-07
-2.24214e-07
1.36321e-07
5.9369e-07
-1.99736e-07
9.03009e-08
6.24806e-07
-1.89308e-07
4.48182e-08
6.44799e-07
-1.8061e-07
1.16081e-16
6.54634e-07
-1.76598e-07
-4.48182e-08
6.54634e-07
-1.76598e-07
-9.03009e-08
6.44799e-07
-1.8061e-07
-1.36321e-07
6.24806e-07
-1.89308e-07
-1.84292e-07
5.9369e-07
-1.99736e-07
5.49863e-07
-2.24214e-07
-2.24214e-07
1.31371e-07
1.31371e-07
5.86696e-07
-1.49787e-07
-1.49787e-07
1.03584e-07
1.29153e-07
6.42906e-07
-1.50583e-07
7.08499e-08
1.25596e-07
6.81593e-07
-1.49649e-07
3.57918e-08
1.22135e-07
7.05519e-07
-1.47797e-07
1.63762e-16
1.20294e-07
7.16961e-07
-1.46829e-07
-3.57918e-08
1.20294e-07
7.16961e-07
-1.46829e-07
-7.08499e-08
1.22135e-07
7.05519e-07
-1.47797e-07
-1.03584e-07
1.25596e-07
6.81593e-07
-1.49649e-07
-1.31371e-07
1.29153e-07
6.42906e-07
-1.50583e-07
1.31371e-07
5.86696e-07
-1.49787e-07
-1.49787e-07
1.29153e-07
1.03584e-07
6.42906e-07
-1.50583e-07
9.96816e-08
9.96816e-08
6.88484e-07
6.71141e-08
9.51752e-08
7.17674e-07
3.35964e-08
9.14698e-08
7.35167e-07
1.02485e-16
8.95248e-08
7.43427e-07
-3.35964e-08
8.95248e-08
7.43427e-07
-6.71141e-08
9.14698e-08
7.35167e-07
-9.96816e-08
9.51752e-08
7.17674e-07
-1.29153e-07
9.96816e-08
6.88484e-07
1.03584e-07
6.42906e-07
-1.50583e-07
1.25596e-07
7.08499e-08
6.81593e-07
-1.49649e-07
9.51752e-08
6.71141e-08
7.17674e-07
6.32513e-08
6.32513e-08
7.39796e-07
3.14464e-08
6.03112e-08
7.52914e-07
1.04777e-16
5.87957e-08
7.59124e-07
-3.14464e-08
5.87957e-08
7.59124e-07
-6.32513e-08
6.03112e-08
7.52914e-07
-9.51752e-08
6.32513e-08
7.39796e-07
-1.25596e-07
6.71141e-08
7.17674e-07
7.08499e-08
6.81593e-07
-1.49649e-07
1.22135e-07
3.57918e-08
7.05519e-07
-1.47797e-07
9.14698e-08
3.35964e-08
7.35167e-07
6.03112e-08
3.14464e-08
7.52914e-07
2.98642e-08
2.98642e-08
7.6349e-07
-4.03781e-17
2.90571e-08
7.68553e-07
-2.98642e-08
2.90571e-08
7.68553e-07
-6.03112e-08
2.98642e-08
7.6349e-07
-9.14698e-08
3.14464e-08
7.52914e-07
-1.22135e-07
3.35964e-08
7.35167e-07
3.57918e-08
7.05519e-07
-1.47797e-07
1.20294e-07
-1.3536e-16
7.16961e-07
-1.46829e-07
8.95248e-08
4.28488e-17
7.43427e-07
5.87957e-08
-1.37907e-16
7.59124e-07
2.90571e-08
-3.09094e-16
7.68553e-07
6.4e-17
1.55978e-17
7.73108e-07
-2.90571e-08
-3.17746e-17
7.73108e-07
-5.87957e-08
-1.70649e-16
7.68553e-07
-8.95248e-08
-1.19038e-17
7.59124e-07
-1.20294e-07
5.1002e-17
7.43427e-07
5.76207e-17
7.16961e-07
-1.46829e-07
1.20294e-07
-3.57918e-08
7.16961e-07
-1.46829e-07
8.95248e-08
-3.35964e-08
7.43427e-07
5.87957e-08
-3.14464e-08
7.59124e-07
2.90571e-08
-2.98642e-08
7.68553e-07
4.49454e-17
-2.90571e-08
7.73108e-07
-2.90571e-08
-2.90571e-08
7.73108e-07
-5.87957e-08
-2.98642e-08
7.68553e-07
-8.95248e-08
-3.14464e-08
7.59124e-07
-1.20294e-07
-3.35964e-08
7.43427e-07
-3.57918e-08
7.16961e-07
-1.46829e-07
1.22135e-07
-7.08499e-08
7.05519e-07
-1.47797e-07
9.14698e-08
-6.71141e-08
7.35167e-07
6.03112e-08
-6.32513e-08
7.52914e-07
2.98642e-08
-6.03112e-08
7.6349e-07
1.32582e-16
-5.87957e-08
7.68553e-07
-2.98642e-08
-5.87957e-08
7.68553e-07
-6.03112e-08
-6.03112e-08
7.6349e-07
-9.14698e-08
-6.32513e-08
7.52914e-07
-1.22135e-07
-6.71141e-08
7.35167e-07
-7.08499e-08
7.05519e-07
-1.47797e-07
1.25596e-07
-1.03584e-07
6.81593e-07
-1.49649e-07
9.51752e-08
-9.96816e-08
7.17674e-07
6.32513e-08
-9.51752e-08
7.39796e-07
3.14464e-08
-9.14698e-08
7.52914e-07
-1.13591e-16
-8.95248e-08
7.59124e-07
-3.14464e-08
-8.95248e-08
7.59124e-07
-6.32513e-08
-9.14698e-08
7.52914e-07
-9.51752e-08
-9.51752e-08
7.39796e-07
-1.25596e-07
-9.96816e-08
7.17674e-07
-1.03584e-07
6.81593e-07
-1.49649e-07
1.29153e-07
-1.31371e-07
6.42906e-07
-1.50583e-07
9.96816e-08
-1.29153e-07
6.88484e-07
6.71141e-08
-1.25596e-07
7.17674e-07
3.35964e-08
-1.22135e-07
7.35167e-07
-1.66816e-16
-1.20294e-07
7.43427e-07
-3.35964e-08
-1.20294e-07
7.43427e-07
-6.71141e-08
-1.22135e-07
7.35167e-07
-9.96816e-08
-1.25596e-07
7.17674e-07
-1.29153e-07
-1.29153e-07
6.88484e-07
-1.31371e-07
6.42906e-07
-1.50583e-07
1.31371e-07
5.86696e-07
-1.49787e-07
-1.49787e-07
1.03584e-07
6.42906e-07
-1.50583e-07
7.08499e-08
6.81593e-07
-1.49649e-07
3.57918e-08
7.05519e-07
-1.47797e-07
2.89383e-16
7.16961e-07
-1.46829e-07
-3.57918e-08
7.16961e-07
-1.46829e-07
-7.08499e-08
7.05519e-07
-1.47797e-07
-1.03584e-07
6.81593e-07
-1.49649e-07
-1.31371e-07
6.42906e-07
-1.50583e-07
5.86696e-07
-1.49787e-07
-1.49787e-07
1.03069e-07
1.03069e-07
5.96779e-07
-1.0811e-07
-1.0811e-07
8.65514e-08
1.09014e-07
6.66616e-07
-1.16206e-07
6.16942e-08
1.11339e-07
7.15388e-07
-1.20277e-07
3.19517e-08
1.1165e-07
7.45676e-07
-1.22065e-07
-1.53959e-17
1.11542e-07
7.60121e-07
-1.2275e-07
-3.19517e-08
1.11542e-07
7.60121e-07
-1.2275e-07
-6.16942e-08
1.1165e-07
7.45676e-07
-1.22065e-07
-8.65514e-08
1.11339e-07
7.15388e-07
-1.20277e-07
-1.03069e-07
1.09014e-07
6.66616e-07
-1.16206e-07
1.03069e-07
5.96779e-07
-1.0811e-07
-1.0811e-07
1.09014e-07
8.65514e-08
6.66616e-07
-1.16206e-07
8.98176e-08
8.98176e-08
7.26876e-07
6.3208e-08
9.03755e-08
7.65247e-07
3.24769e-08
8.97392e-08
7.87809e-07
1.21275e-17
8.91847e-08
7.98261e-07
-3.24769e-08
8.91847e-08
7.98261e-07
-6.3208e-08
8.97392e-08
7.87809e-07
-8.98176e-08
9.03755e-08
7.65247e-07
-1.09014e-07
8.98176e-08
7.26876e-07
8.65514e-08
6.66616e-07
-1.16206e-07
1.11339e-07
6.16942e-08
7.15388e-07
-1.20277e-07
9.03755e-08
6.3208e-08
7.65247e-07
6.29052e-08
6.29052e-08
7.94737e-07
3.21279e-08
6.20436e-08
8.11386e-07
-6.06225e-17
6.14553e-08
8.18981e-07
-3.21279e-08
6.14553e-08
8.18981e-07
-6.29052e-08
6.20436e-08
8.11386e-07
-9.03755e-08
6.29052e-08
7.94737e-07
-1.11339e-07
6.3208e-08
7.65247e-07
6.16942e-08
7.15388e-07
-1.20277e-07
1.1165e-07
3.19517e-08
7.45676e-07
-1.22065e-07
8.97392e-08
3.24769e-08
7.87809e-07
6.20436e-08
3.21279e-08
8.11386e-07
3.15793e-08
3.15793e-08
8.24419e-07
-3.27328e-17
3.12294e-08
8.30358e-07
-3.15793e-08
3.12294e-08
8.30358e-07
-6.20436e-08
3.15793e-08
8.24419e-07
-8.97392e-08
3.21279e-08
8.11386e-07
-1.1165e-07
3.24769e-08
7.87809e-07
3.19517e-08
7.45676e-07
-1.22065e-07
1.11542e-07
1.23871e-16
7.60121e-07
-1.2275e-07
8.91847e-08
3.68465e-16
7.98261e-07
6.14553e-08
-1.13084e-16
8.18981e-07
3.12294e-08
-2.69327e-16
8.30358e-07
2.75223e-16
2.42086e-16
8.35567e-07
-3.12294e-08
3.73675e-16
8.35567e-07
-6.14553e-08
9.86724e-17
8.30358e-07
-8.91847e-08
1.99659e-16
8.18981e-07
-1.11542e-07
1.79758e-16
7.98261e-07
2.02096e-16
7.60121e-07
-1.2275e-07
1.11542e-07
-3.19517e-08
7.60121e-07
-1.2275e-07
8.91847e-08
-3.24769e-08
7.98261e-07
6.14553e-08
-3.21279e-08
8.18981e-07
3.12294e-08
-3.15793e-08
8.30358e-07
3.04926e-16
-3.12294e-08
8.35567e-07
-3.12294e-08
-3.12294e-08
8.35567e-07
-6.14553e-08
-3.15793e-08
8.30358e-07
-8.91847e-08
-3.21279e-08
8.18981e-07
-1.11542e-07
-3.24769e-08
7.98261e-07
-3.19517e-08
7.60121e-07
-1.2275e-07
1.1165e-07
-6.16942e-08
7.45676e-07
-1.22065e-07
8.97392e-08
-6.3208e-08
7.87809e-07
6.20436e-08
-6.29052e-08
8.11386e-07
3.15793e-08
-6.20436e-08
8.24419e-07
5.61304e-16
-6.14553e-08
8.30358e-07
-3.15793e-08
-6.14553e-08
8.30358e-07
-6.20436e-08
-6.20436e-08
8.24419e-07
-8.97392e-08
-6.29052e-08
8.11386e-07
-1.1165e-07
-6.3208e-08
7.87809e-07
-6.16942e-08
7.45676e-07
-1.22065e-07
1.11339e-07
-8.65514e-08
7.15388e-07
-1.20277e-07
9.03755e-08
-8.98176e-08
7.65247e-07
6.29052e-08
-9.03755e-08
7.94737e-07
3.21279e-08
-8.97392e-08
8.11386e-07
2.93109e-16
-8.91847e-08
8.18981e-07
-3.21279e-08
-8.91847e-08
8.18981e-07
-6.29052e-08
-8.97392e-08
8.11386e-07
-9.03755e-08
-9.03755e-08
7.94737e-07
-1.11339e-07
-8.98176e-08
7.65247e-07
-8.65514e-08
7.15388e-07
-1.20277e-07
1.09014e-07
-1.03069e-07
6.66616e-07
-1.16206e-07
8.98176e-08
-1.09014e-07
7.26876e-07
6.3208e-08
-1.11339e-07
7.65247e-07
3.24769e-08
-1.1165e-07
7.87809e-07
-8.27028e-17
-1.11542e-07
7.98261e-07
-3.24769e-08
-1.11542e-07
7.98261e-07
-6.3208e-08
-1.1165e-07
7.87809e-07
-8.98176e-08
-1.11339e-07
7.65247e-07
-1.09014e-07
-1.09014e-07
7.26876e-07
-1.03069e-07
6.66616e-07
-1.16206e-07
1.03069e-07
5.96779e-07
-1.0811e-07
-1.0811e-07
8.65514e-08
6.66616e-07
-1.16206e-07
6.16942e-08
7.15388e-07
-1.20277e-07
3.19517e-08
7.45676e-07
-1.22065e-07
2.26151e-16
7.60121e-07
-1.2275e-07
-3.19517e-08
7.60121e-07
-1.2275e-07
-6.16942e-08
7.45676e-07
-1.22065e-07
-8.65514e-08
7.15388e-07
-1.20277e-07
-1.03069e-07
6.66616e-07
-1.16206e-07
5.96779e-07
-1.0811e-07
-1.0811e-07
5.34131e-08
5.34131e-08
5.95963e-07
-5.3005e-08
-5.3005e-08
4.71369e-08
6.07745e-08
6.72858e-07
-6.07406e-08
3.476e-08
6.5283e-08
7.27857e-07
-6.53752e-08
1.83907e-08
6.76964e-08
7.62554e-07
-6.82047e-08
2.0018e-16
6.87329e-08
7.79236e-07
-6.94569e-08
-1.83907e-08
6.87329e-08
7.79236e-07
-6.94569e-08
-3.476e-08
6.76964e-08
7.62554e-07
-6.82047e-08
-4.71369e-08
6.5283e-08
7.27857e-07
-6.53752e-08
-5.34131e-08
6.07745e-08
6.72858e-07
-6.07406e-08
5.34131e-08
5.95963e-07
-5.3005e-08
-5.3005e-08
6.07745e-08
4.71369e-08
6.72858e-07
-6.07406e-08
5.27841e-08
5.27841e-08
7.42857e-07
3.85524e-08
5.61521e-08
7.88609e-07
2.02613e-08
5.78432e-08
8.15954e-07
7.53373e-16
5.85316e-08
8.28723e-07
-2.02613e-08
5.85316e-08
8.28723e-07
-3.85524e-08
5.78432e-08
8.15954e-07
-5.27841e-08
5.61521e-08
7.88609e-07
-6.07745e-08
5.27841e-08
7.42857e-07
4.71369e-08
6.72858e-07
-6.07406e-08
6.5283e-08
3.476e-08
7.27857e-07
-6.53752e-08
5.61521e-08
3.85524e-08
7.88609e-07
4.06944e-08
4.06944e-08
8.25652e-07
2.12892e-08
4.17216e-08
8.46913e-07
7.3426e-16
4.21202e-08
8.56682e-07
-2.12892e-08
4.21202e-08
8.56682e-07
-4.06944e-08
4.17216e-08
8.46913e-07
-5.61521e-08
4.06944e-08
8.25652e-07
-6.5283e-08
3.85524e-08
7.88609e-07
3.476e-08
7.27857e-07
-6.53752e-08
6.76964e-08
1.83907e-08
7.62554e-07
-6.82047e-08
5.78432e-08
2.02613e-08
8.15954e-07
4.17216e-08
2.12892e-08
8.46913e-07
2.17728e-08
2.17728e-08
8.64316e-07
7.12045e-16
2.19557e-08
8.72295e-07
-2.17728e-08
2.19557e-08
8.72295e-07
-4.17216e-08
2.17728e-08
8.64316e-07
-5.78432e-08
2.12892e-08
8.46913e-07
-6.76964e-08
2.02613e-08
8.15954e-07
1.83907e-08
7.62554e-07
-6.82047e-08
6.87329e-08
2.37926e-16
7.79236e-07
-6.94569e-08
5.85316e-08
9.05193e-16
8.28723e-07
4.21202e-08
5.86912e-16
8.56682e-07
2.19557e-08
4.61441e-16
8.72295e-07
7.27438e-16
7.25978e-16
8.79478e-07
-2.19557e-08
6.73021e-16
8.79478e-07
-4.21202e-08
1.67026e-16
8.72295e-07
-5.85316e-08
3.90513e-17
8.56682e-07
-6.87329e-08
-3.8237e-16
8.28723e-07
-2.59719e-16
7.79236e-07
-6.94569e-08
6.87329e-08
-1.83907e-08
7.79236e-07
-6.94569e-08
5.85316e-08
-2.02613e-08
8.28723e-07
4.21202e-08
-2.12892e-08
8.56682e-07
2.19557e-08
-2.17728e-08
8.72295e-07
5.38601e-16
-2.19557e-08
8.79478e-07
-2.19557e-08
-2.19557e-08
8.79478e-07
-4.21202e-08
-2.17728e-08
8.72295e-07
-5.85316e-08
-2.12892e-08
8.56682e-07
-6.87329e-08
-2.02613e-08
8.28723e-07
-1.83907e-08
7.79236e-07
-6.94569e-08
6.76964e-08
-3.476e-08
7.62554e-07
-6.82047e-08
5.78432e-08
-3.85524e-08
8.15954e-07
4.17216e-08
-4.06944e-08
8.46913e-07
2.17728e-08
-4.17216e-08
8.64316e-07
6.65731e-16
-4.21202e-08
8.72295e-07
-2.17728e-08
-4.21202e-08
8.72295e-07
-4.17216e-08
-4.17216e-08
8.64316e-07
-5.78432e-08
-4.06944e-08
8.46913e-07
-6.76964e-08
-3.85524e-08
8.15954e-07
-3.476e-08
7.62554e-07
-6.82047e-08
6.5283e-08
-4.71369e-08
7.27857e-07
-6.53752e-08
5.61521e-08
-5.27841e-08
7.88609e-07
4.06944e-08
-5.61521e-08
8.25652e-07
2.12892e-08
-5.78432e-08
8.46913e-07
3.17769e-16
-5.85316e-08
8.56682e-07
-2.12892e-08
-5.85316e-08
8.56682e-07
-4.06944e-08
-5.78432e-08
8.46913e-07
-5.61521e-08
-5.61521e-08
8.25652e-07
-6.5283e-08
-5.27841e-08
7.88609e-07
-4.71369e-08
7.27857e-07
-6.53752e-08
6.07745e-08
-5.34131e-08
6.72858e-07
-6.07406e-08
5.27841e-08
-6.07745e-08
7.42857e-07
3.85524e-08
-6.5283e-08
7.88609e-07
2.02613e-08
-6.76964e-08
8.15954e-07
-4.28607e-16
-6.87329e-08
8.28723e-07
-2.02613e-08
-6.87329e-08
8.28723e-07
-3.85524e-08
-6.76964e-08
8.15954e-07
-5.27841e-08
-6.5283e-08
7.88609e-07
-6.07745e-08
-6.07745e-08
7.42857e-07
-5.34131e-08
6.72858e-07
-6.07406e-08
5.34131e-08
5.95963e-07
-5.3005e-08
-5.3005e-08
4.71369e-08
6.72858e-07
-6.07406e-08
3.476e-08
7.27857e-07
-6.53752e-08
1.83907e-08
7.62554e-07
-6.82047e-08
-1.70033e-16
7.79236e-07
-6.94569e-08
-1.83907e-08
7.79236e-07
-6.94569e-08
-3.476e-08
7.62554e-07
-6.82047e-08
-4.71369e-08
7.27857e-07
-6.53752e-08
-5.34131e-08
6.72858e-07
-6.07406e-08
5.95963e-07
-5.3005e-08
-5.3005e-08
2.76818e-08
2.76818e-08
5.9319e-07
-2.62954e-08
-2.62954e-08
2.5152e-08
3.26018e-08
6.73583e-07
-3.07961e-08
1.89797e-08
3.60468e-08
7.31942e-07
-3.39593e-08
1.01862e-08
3.81527e-08
7.69195e-07
-3.60008e-08
2.4763e-16
3.91264e-08
7.87236e-07
-3.69398e-08
-1.01862e-08
3.91264e-08
7.87236e-07
-3.69398e-08
-1.89797e-08
3.81527e-08
7.69195e-07
-3.60008e-08
-2.5152e-08
3.60468e-08
7.31942e-07
-3.39593e-08
-2.76818e-08
3.26018e-08
6.73583e-07
-3.07961e-08
2.76818e-08
5.9319e-07
-2.62954e-08
-2.62954e-08
3.26018e-08
2.5152e-08
6.73583e-07
-3.07961e-08
2.94714e-08
2.94714e-08
7.49117e-07
2.21393e-08
3.24576e-08
7.99531e-07
1.18367e-08
3.42281e-08
8.30181e-07
6.83424e-16
3.50376e-08
8.44649e-07
-1.18367e-08
3.50376e-08
8.44649e-07
-2.21393e-08
3.42281e-08
8.30181e-07
-2.94714e-08
3.24576e-08
7.99531e-07
-3.26018e-08
2.94714e-08
7.49117e-07
2.5152e-08
6.73583e-07
-3.07961e-08
3.60468e-08
1.89797e-08
7.31942e-07
-3.39593e-08
3.24576e-08
2.21393e-08
7.99531e-07
2.42859e-08
2.42859e-08
8.41995e-07
1.29472e-08
2.55355e-08
8.66944e-07
5.68767e-16
2.60986e-08
8.78568e-07
-1.29472e-08
2.60986e-08
8.78568e-07
-2.42859e-08
2.55355e-08
8.66944e-07
-3.24576e-08
2.42859e-08
8.41995e-07
-3.60468e-08
2.21393e-08
7.99531e-07
1.89797e-08
7.31942e-07
-3.39593e-08
3.81527e-08
1.01862e-08
7.69195e-07
-3.60008e-08
3.42281e-08
1.18367e-08
8.30181e-07
2.55355e-08
1.29472e-08
8.66944e-07
1.35896e-08
1.35896e-08
8.88208e-07
5.49398e-16
1.38769e-08
8.98107e-07
-1.35896e-08
1.38769e-08
8.98107e-07
-2.55355e-08
1.35896e-08
8.88208e-07
-3.42281e-08
1.29472e-08
8.66944e-07
-3.81527e-08
1.18367e-08
8.30181e-07
1.01862e-08
7.69195e-07
-3.60008e-08
3.91264e-08
7.1403e-16
7.87236e-07
-3.69398e-08
3.50376e-08
1.11377e-15
8.44649e-07
2.60986e-08
7.87885e-16
8.78568e-07
1.38769e-08
5.63017e-16
8.98107e-07
6.99612e-16
7.27276e-16
9.07232e-07
-1.38769e-08
1.05995e-15
9.07232e-07
-2.60986e-08
9.74151e-16
8.98107e-07
-3.50376e-08
7.30115e-16
8.78568e-07
-3.91264e-08
1.50591e-16
8.44649e-07
1.57533e-17
7.87236e-07
-3.69398e-08
3.91264e-08
-1.01862e-08
7.87236e-07
-3.69398e-08
3.50376e-08
-1.18367e-08
8.44649e-07
2.60986e-08
-1.29472e-08
8.78568e-07
1.38769e-08
-1.35896e-08
8.98107e-07
9.1357e-16
-1.38769e-08
9.07232e-07
-1.38769e-08
-1.38769e-08
9.07232e-07
-2.60986e-08
-1.35896e-08
8.98107e-07
-3.50376e-08
-1.29472e-08
8.78568e-07
-3.91264e-08
-1.18367e-08
8.44649e-07
-1.01862e-08
7.87236e-07
-3.69398e-08
3.81527e-08
-1.89797e-08
7.69195e-07
-3.60008e-08
3.42281e-08
-2.21393e-08
8.30181e-07
2.55355e-08
-2.42859e-08
8.66944e-07
1.35896e-08
-2.55355e-08
8.88208e-07
1.18007e-15
-2.60986e-08
8.98107e-07
-1.35896e-08
-2.60986e-08
8.98107e-07
-2.55355e-08
-2.55355e-08
8.88208e-07
-3.42281e-08
-2.42859e-08
8.66944e-07
-3.81527e-08
-2.21393e-08
8.30181e-07
-1.89797e-08
7.69195e-07
-3.60008e-08
3.60468e-08
-2.5152e-08
7.31942e-07
-3.39593e-08
3.24576e-08
-2.94714e-08
7.99531e-07
2.42859e-08
-3.24576e-08
8.41995e-07
1.29472e-08
-3.42281e-08
8.66944e-07
8.64283e-16
-3.50376e-08
8.78568e-07
-1.29472e-08
-3.50376e-08
8.78568e-07
-2.42859e-08
-3.42281e-08
8.66944e-07
-3.24576e-08
-3.24576e-08
8.41995e-07
-3.60468e-08
-2.94714e-08
7.99531e-07
-2.5152e-08
7.31942e-07
-3.39593e-08
3.26018e-08
-2.76818e-08
6.73583e-07
-3.07961e-08
2.94714e-08
-3.26018e-08
7.49117e-07
2.21393e-08
-3.60468e-08
7.99531e-07
1.18367e-08
-3.81527e-08
8.30181e-07
8.60329e-17
-3.91264e-08
8.44649e-07
-1.18367e-08
-3.91264e-08
8.44649e-07
-2.21393e-08
-3.81527e-08
8.30181e-07
-2.94714e-08
-3.60468e-08
7.99531e-07
-3.26018e-08
-3.26018e-08
7.49117e-07
-2.76818e-08
6.73583e-07
-3.07961e-08
2.76818e-08
5.9319e-07
-2.62954e-08
-2.62954e-08
2.5152e-08
6.73583e-07
-3.07961e-08
1.89797e-08
7.31942e-07
-3.39593e-08
1.01862e-08
7.69195e-07
-3.60008e-08
1.57556e-16
7.87236e-07
-3.69398e-08
-1.01862e-08
7.87236e-07
-3.69398e-08
-1.89797e-08
7.69195e-07
-3.60008e-08
-2.5152e-08
7.31942e-07
-3.39593e-08
-2.76818e-08
6.73583e-07
-3.07961e-08
5.9319e-07
-2.62954e-08
-2.62954e-08
1.1681e-08
1.1681e-08
5.90657e-07
-1.04147e-08
-1.04147e-08
1.11527e-08
1.46583e-08
6.72268e-07
-1.28158e-08
8.71989e-09
1.69703e-08
7.32082e-07
-1.46769e-08
4.78112e-09
1.85147e-08
7.70583e-07
-1.59638e-08
1.96454e-16
1.92667e-08
7.89332e-07
-1.65815e-08
-4.78112e-09
1.92667e-08
7.89332e-07
-1.65815e-08
-8.71989e-09
1.85147e-08
7.70583e-07
-1.59638e-08
-1.11527e-08
1.69703e-08
7.32082e-07
-1.46769e-08
-1.1681e-08
1.46583e-08
6.72268e-07
-1.28158e-08
1.1681e-08
5.90657e-07
-1.04147e-08
-1.04147e-08
1.46583e-08
1.11527e-08
6.72268e-07
-1.28158e-08
1.40372e-08
1.40372e-08
7.50359e-07
1.09704e-08
1.62617e-08
8.03306e-07
6.00348e-09
1.77124e-08
8.3595e-07
7.43192e-16
1.84152e-08
8.51504e-07
-6.00348e-09
1.84152e-08
8.51504e-07
-1.09704e-08
1.77124e-08
8.3595e-07
-1.40372e-08
1.62617e-08
8.03306e-07
-1.46583e-08
1.40372e-08
7.50359e-07
1.11527e-08
6.72268e-07
-1.28158e-08
1.69703e-08
8.71989e-09
7.32082e-07
-1.46769e-08
1.62617e-08
1.09704e-08
8.03306e-07
1.26859e-08
1.26859e-08
8.49147e-07
6.92683e-09
1.37856e-08
8.7663e-07
7.98597e-16
1.43125e-08
8.89597e-07
-6.92682e-09
1.43125e-08
8.89597e-07
-1.26859e-08
1.37856e-08
8.7663e-07
-1.62617e-08
1.26859e-08
8.49147e-07
-1.69703e-08
1.09704e-08
8.03306e-07
8.71989e-09
7.32082e-07
-1.46769e-08
1.85147e-08
4.78112e-09
7.70583e-07
-1.59638e-08
1.77124e-08
6.00348e-09
8.3595e-07
1.37856e-08
6.92683e-09
8.7663e-07
7.51371e-09
7.51371e-09
9.00752e-07
7.37491e-16
7.79283e-09
9.1214e-07
-7.51371e-09
7.79283e-09
9.1214e-07
-1.37856e-08
7.51371e-09
9.00752e-07
-1.77124e-08
6.92683e-09
8.7663e-07
-1.85147e-08
6.00348e-09
8.3595e-07
4.78112e-09
7.70583e-07
-1.59638e-08
1.92667e-08
4.17348e-16
7.89332e-07
-1.65815e-08
1.84152e-08
6.65977e-16
8.51504e-07
1.43125e-08
6.99666e-16
8.89597e-07
7.79283e-09
7.07785e-16
9.1214e-07
7.74561e-16
8.21436e-16
9.22818e-07
-7.79283e-09
9.06495e-16
9.22818e-07
-1.43125e-08
8.22195e-16
9.1214e-07
-1.84152e-08
5.41927e-16
8.89597e-07
-1.92667e-08
1.99453e-16
8.51504e-07
1.31111e-16
7.89332e-07
-1.65815e-08
1.92667e-08
-4.78112e-09
7.89332e-07
-1.65815e-08
1.84152e-08
-6.00348e-09
8.51504e-07
1.43125e-08
-6.92682e-09
8.89597e-07
7.79283e-09
-7.51371e-09
9.1214e-07
8.41479e-16
-7.79283e-09
9.22818e-07
-7.79283e-09
-7.79283e-09
9.22818e-07
-1.43125e-08
-7.51371e-09
9.1214e-07
-1.84152e-08
-6.92682e-09
8.89597e-07
-1.92667e-08
-6.00348e-09
8.51504e-07
-4.78112e-09
7.89332e-07
-1.65815e-08
1.85147e-08
-8.71989e-09
7.70583e-07
-1.59638e-08
1.77124e-08
-1.09704e-08
8.3595e-07
1.37856e-08
-1.26859e-08
8.7663e-07
7.51371e-09
-1.37856e-08
9.00752e-07
9.1318e-16
-1.43125e-08
9.1214e-07
-7.51371e-09
-1.43125e-08
9.1214e-07
-1.37856e-08
-1.37856e-08
9.00752e-07
-1.77124e-08
-1.26859e-08
8.7663e-07
-1.85147e-08
-1.09704e-08
8.3595e-07
-8.71989e-09
7.70583e-07
-1.59638e-08
1.69703e-08
-1.11527e-08
7.32082e-07
-1.46769e-08
1.62617e-08
-1.40372e-08
8.03306e-07
1.26859e-08
-1.62617e-08
8.49147e-07
6.92683e-09
-1.77124e-08
8.7663e-07
6.45216e-16
-1.84152e-08
8.89597e-07
-6.92683e-09
-1.84152e-08
8.89597e-07
-1.26859e-08
-1.77124e-08
8.7663e-07
-1.62617e-08
-1.62617e-08
8.49147e-07
-1.69703e-08
-1.40372e-08
8.03306e-07
-1.11527e-08
7.32082e-07
-1.46769e-08
1.46583e-08
-1.1681e-08
6.72268e-07
-1.28158e-08
1.40372e-08
-1.46583e-08
7.50359e-07
1.09704e-08
-1.69703e-08
8.03306e-07
6.00348e-09
-1.85147e-08
8.3595e-07
6.36402e-17
-1.92667e-08
8.51504e-07
-6.00348e-09
-1.92667e-08
8.51504e-07
-1.09704e-08
-1.85147e-08
8.3595e-07
-1.40372e-08
-1.69703e-08
8.03306e-07
-1.46583e-08
-1.46583e-08
7.50359e-07
-1.1681e-08
6.72268e-07
-1.28158e-08
1.1681e-08
5.90657e-07
-1.04147e-08
-1.04147e-08
1.11527e-08
6.72268e-07
-1.28158e-08
8.71989e-09
7.32082e-07
-1.46769e-08
4.78112e-09
7.70583e-07
-1.59638e-08
6.33766e-17
7.89332e-07
-1.65815e-08
-4.78112e-09
7.89332e-07
-1.65815e-08
-8.71989e-09
7.70583e-07
-1.59638e-08
-1.11527e-08
7.32082e-07
-1.46769e-08
-1.1681e-08
6.72268e-07
-1.28158e-08
5.90657e-07
-1.04147e-08
-1.04147e-08
4.15034e-09
4.15034e-09
5.89228e-07
-3.43594e-09
-3.43594e-09
4.1912e-09
5.59875e-09
6.71098e-07
-4.46898e-09
3.40715e-09
6.8296e-09
7.31381e-07
-5.3452e-09
1.91185e-09
7.71051e-09
7.70359e-07
-5.99135e-09
3.09219e-16
8.15585e-09
7.894e-07
-6.31209e-09
-1.91185e-09
8.15585e-09
7.894e-07
-6.31209e-09
-3.40715e-09
7.71051e-09
7.70359e-07
-5.99135e-09
-4.1912e-09
6.8296e-09
7.31381e-07
-5.3452e-09
-4.15034e-09
5.59875e-09
6.71098e-07
-4.46898e-09
4.15034e-09
5.89228e-07
-3.43594e-09
-3.43594e-09
5.59875e-09
4.1912e-09
6.71098e-07
-4.46898e-09
5.72363e-09
5.72363e-09
7.5011e-07
4.67206e-09
7.01528e-09
8.04172e-07
2.62138e-09
7.91718e-09
8.37794e-07
4.96144e-16
8.37094e-09
8.5391e-07
-2.62138e-09
8.37094e-09
8.5391e-07
-4.67206e-09
7.91718e-09
8.37794e-07
-5.72363e-09
7.01528e-09
8.04172e-07
-5.59875e-09
5.72363e-09
7.5011e-07
4.1912e-09
6.71098e-07
-4.46898e-09
6.8296e-09
3.40715e-09
7.31381e-07
-5.3452e-09
7.01528e-09
4.67206e-09
8.04172e-07
5.72347e-09
5.72347e-09
8.51731e-07
3.20434e-09
6.44351e-09
8.80623e-07
5.4406e-16
6.80169e-09
8.94371e-07
-3.20434e-09
6.80169e-09
8.94371e-07
-5.72347e-09
6.44351e-09
8.80623e-07
-7.01528e-09
5.72347e-09
8.51731e-07
-6.8296e-09
4.67206e-09
8.04172e-07
3.40715e-09
7.31381e-07
-5.3452e-09
7.71051e-09
1.91185e-09
7.70359e-07
-5.99135e-09
7.91718e-09
2.62138e-09
8.37794e-07
6.44351e-09
3.20434e-09
8.80623e-07
3.59913e-09
3.59913e-09
9.0644e-07
6.07436e-16
3.79396e-09
9.18747e-07
-3.59913e-09
3.79396e-09
9.18747e-07
-6.44351e-09
3.59913e-09
9.0644e-07
-7.91718e-09
3.20434e-09
8.80623e-07
-7.71051e-09
2.62138e-09
8.37794e-07
1.91185e-09
7.70359e-07
-5.99135e-09
8.15585e-09
3.37137e-16
7.894e-07
-6.31209e-09
8.37094e-09
4.10049e-16
8.5391e-07
6.80169e-09
5.16228e-16
8.94371e-07
3.79396e-09
6.50164e-16
9.18747e-07
7.23971e-16
7.9579e-16
9.30406e-07
-3.79396e-09
8.94451e-16
9.30406e-07
-6.80169e-09
1.03126e-15
9.18747e-07
-8.37094e-09
7.5553e-16
8.94371e-07
-8.15585e-09
4.45748e-16
8.5391e-07
3.0768e-16
7.894e-07
-6.31209e-09
8.15585e-09
-1.91185e-09
7.894e-07
-6.31209e-09
8.37094e-09
-2.62138e-09
8.5391e-07
6.80169e-09
-3.20434e-09
8.94371e-07
3.79396e-09
-3.59913e-09
9.18747e-07
8.61287e-16
-3.79396e-09
9.30406e-07
-3.79396e-09
-3.79396e-09
9.30406e-07
-6.80169e-09
-3.59913e-09
9.18747e-07
-8.37094e-09
-3.20434e-09
8.94371e-07
-8.15585e-09
-2.62138e-09
8.5391e-07
-1.91185e-09
7.894e-07
-6.31209e-09
7.71051e-09
-3.40715e-09
7.70359e-07
-5.99135e-09
7.91718e-09
-4.67206e-09
8.37794e-07
6.44351e-09
-5.72347e-09
8.80623e-07
3.59913e-09
-6.44351e-09
9.0644e-07
8.83246e-16
-6.80169e-09
9.18747e-07
-3.59913e-09
-6.80169e-09
9.18747e-07
-6.44351e-09
-6.44351e-09
9.0644e-07
-7.91718e-09
-5.72347e-09
8.80623e-07
-7.71051e-09
-4.67206e-09
8.37794e-07
-3.40715e-09
7.70359e-07
-5.99135e-09
6.8296e-09
-4.1912e-09
7.31381e-07
-5.3452e-09
7.01528e-09
-5.72363e-09
8.04172e-07
5.72347e-09
-7.01528e-09
8.51731e-07
3.20434e-09
-7.91718e-09
8.80623e-07
6.12695e-16
-8.37094e-09
8.94371e-07
-3.20434e-09
-8.37094e-09
8.94371e-07
-5.72347e-09
-7.91718e-09
8.80623e-07
-7.01528e-09
-7.01528e-09
8.51731e-07
-6.8296e-09
-5.72363e-09
8.04172e-07
-4.1912e-09
7.31381e-07
-5.3452e-09
5.59875e-09
-4.15034e-09
6.71098e-07
-4.46898e-09
5.72363e-09
-5.59875e-09
7.5011e-07
4.67206e-09
-6.8296e-09
8.04172e-07
2.62138e-09
-7.71051e-09
8.37794e-07
2.13906e-16
-8.15585e-09
8.5391e-07
-2.62138e-09
-8.15585e-09
8.5391e-07
-4.67206e-09
-7.71051e-09
8.37794e-07
-5.72363e-09
-6.8296e-09
8.04172e-07
-5.59875e-09
-5.59875e-09
7.5011e-07
-4.15034e-09
6.71098e-07
-4.46898e-09
4.15034e-09
5.89228e-07
-3.43594e-09
-3.43594e-09
4.1912e-09
6.71098e-07
-4.46898e-09
3.40715e-09
7.31381e-07
-5.3452e-09
1.91185e-09
7.70359e-07
-5.99135e-09
4.08967e-18
7.894e-07
-6.31209e-09
-1.91185e-09
7.894e-07
-6.31209e-09
-3.40715e-09
7.70359e-07
-5.99135e-09
-4.1912e-09
7.31381e-07
-5.3452e-09
-4.15034e-09
6.71098e-07
-4.46898e-09
5.89228e-07
-3.43594e-09
-3.43594e-09
1.26203e-09
1.26203e-09
5.88559e-07
-9.27147e-10
-9.27148e-10
1.37689e-09
1.87329e-09
6.70427e-07
-1.3172e-09
1.17649e-09
2.43087e-09
7.30828e-07
-1.67653e-09
6.78789e-10
2.85084e-09
7.6996e-07
-1.95388e-09
1.86823e-16
3.06896e-09
7.89105e-07
-2.09555e-09
-6.78789e-10
3.06896e-09
7.89105e-07
-2.09555e-09
-1.17649e-09
2.85084e-09
7.6996e-07
-1.95388e-09
-1.37689e-09
2.43087e-09
7.30828e-07
-1.67653e-09
-1.26203e-09
1.87329e-09
6.70427e-07
-1.3172e-09
1.26203e-09
5.88559e-07
-9.27148e-10
-9.27146e-10
1.87329e-09
1.37689e-09
6.70427e-07
-1.3172e-09
2.07315e-09
2.07315e-09
7.4971e-07
1.7767e-09
2.69974e-09
8.042e-07
1.02379e-09
3.1592e-09
8.38239e-07
4.07864e-16
3.39641e-09
8.54606e-07
-1.02379e-09
3.39641e-09
8.54606e-07
-1.7767e-09
3.1592e-09
8.38239e-07
-2.07315e-09
2.69973e-09
8.042e-07
-1.87329e-09
2.07315e-09
7.4971e-07
1.37689e-09
6.70427e-07
-1.3172e-09
2.43087e-09
1.17649e-09
7.30828e-07
-1.67653e-09
2.69973e-09
1.7767e-09
8.042e-07
2.30826e-09
2.30826e-09
8.52514e-07
1.32515e-09
2.68973e-09
8.82076e-07
4.90518e-16
2.88429e-09
8.96208e-07
-1.32515e-09
2.88429e-09
8.96208e-07
-2.30826e-09
2.68973e-09
8.82076e-07
-2.69973e-09
2.30826e-09
8.52514e-07
-2.43087e-09
1.7767e-09
8.042e-07
1.17649e-09
7.30828e-07
-1.67653e-09
2.85084e-09
6.78789e-10
7.6996e-07
-1.95388e-09
3.1592e-09
1.02379e-09
8.38239e-07
2.68973e-09
1.32515e-09
8.82076e-07
1.53868e-09
1.53868e-09
9.08742e-07
5.18776e-16
1.64666e-09
9.21523e-07
-1.53868e-09
1.64666e-09
9.21523e-07
-2.68973e-09
1.53868e-09
9.08742e-07
-3.15919e-09
1.32515e-09
8.82076e-07
-2.85083e-09