/*--------------------------------*- C++ -*----------------------------------*\
| =========                 |                                                 |
| \\      /  F ield         | OpenFOAM: The Open Source CFD Toolbox           |
|  \\    /   O peration     | Version:  2412                                  |
|   \\  /    A nd           | Website:  www.openfoam.com                      |
|    \\/     M anipulation  |                                                 |
\*---------------------------------------------------------------------------*/
FoamFile
{
    version     2.0;
    format      ascii;
    arch        "LSB;label=32;scalar=64";
    class       surfaceScalarField;
    location    "6.4";
    object      phi;
}
// * * * * * * * * * * * * * * * * * * * * * * * * * * * * * * * * * * * * * //

dimensions      [0 3 -1 0 0 0 0];

oriented        oriented;

internalField   nonuniform List<scalar> 
43700
(
1.86523e-07
1.86523e-07
5.4976e-07
-2.26394e-07
-2.26394e-07
1.38234e-07
1.65858e-07
5.94087e-07
-2.02273e-07
9.16548e-08
1.52442e-07
6.25624e-07
-1.92056e-07
4.55085e-08
1.43441e-07
6.45877e-07
-1.83459e-07
-4.01931e-17
1.39092e-07
6.55825e-07
-1.79479e-07
-4.55085e-08
1.39092e-07
6.55825e-07
-1.79479e-07
-9.16548e-08
1.43441e-07
6.45877e-07
-1.83459e-07
-1.38234e-07
1.52442e-07
6.25624e-07
-1.92056e-07
-1.86523e-07
1.65858e-07
5.94087e-07
-2.02273e-07
1.86523e-07
5.4976e-07
-2.26394e-07
-2.26394e-07
1.65858e-07
1.38234e-07
5.94087e-07
-2.02273e-07
1.23491e-07
1.23491e-07
6.30578e-07
8.13842e-08
1.12172e-07
6.56067e-07
4.02965e-08
1.04561e-07
6.72464e-07
4.11755e-18
1.0082e-07
6.8054e-07
-4.02965e-08
1.0082e-07
6.8054e-07
-8.13842e-08
1.04561e-07
6.72464e-07
-1.23491e-07
1.12172e-07
6.56067e-07
-1.65858e-07
1.23491e-07
6.30578e-07
1.38234e-07
5.94087e-07
-2.02273e-07
1.52442e-07
9.16548e-08
6.25624e-07
-1.92056e-07
1.12172e-07
8.13842e-08
6.56067e-07
7.33955e-08
7.33955e-08
6.77427e-07
3.62146e-08
6.80143e-08
6.9129e-07
-1.65905e-16
6.53562e-08
6.98157e-07
-3.62146e-08
6.53562e-08
6.98157e-07
-7.33955e-08
6.80143e-08
6.9129e-07
-1.12172e-07
7.33955e-08
6.77427e-07
-1.52442e-07
8.13842e-08
6.56067e-07
9.16548e-08
6.25624e-07
-1.92056e-07
1.43441e-07
4.55085e-08
6.45877e-07
-1.83459e-07
1.04561e-07
4.02965e-08
6.72464e-07
6.80143e-08
3.62146e-08
6.9129e-07
3.3454e-08
3.3454e-08
7.03624e-07
8.47613e-18
3.20864e-08
7.09766e-07
-3.3454e-08
3.20864e-08
7.09766e-07
-6.80143e-08
3.3454e-08
7.03624e-07
-1.04561e-07
3.62146e-08
6.9129e-07
-1.43441e-07
4.02965e-08
6.72464e-07
4.55085e-08
6.45877e-07
-1.83459e-07
1.39092e-07
-5.38129e-16
6.55825e-07
-1.79479e-07
1.0082e-07
5.18629e-17
6.8054e-07
6.53562e-08
1.64505e-16
6.98157e-07
3.20864e-08
-4.59265e-17
7.09766e-07
-3.13377e-18
-1.32936e-16
7.15565e-07
-3.20864e-08
2.76327e-16
7.15565e-07
-6.53562e-08
2.08451e-16
7.09766e-07
-1.0082e-07
6.31656e-17
6.98157e-07
-1.39092e-07
4.03087e-17
6.8054e-07
-2.09154e-16
6.55825e-07
-1.79479e-07
1.39092e-07
-4.55085e-08
6.55825e-07
-1.79479e-07
1.0082e-07
-4.02965e-08
6.8054e-07
6.53562e-08
-3.62146e-08
6.98157e-07
3.20864e-08
-3.3454e-08
7.09766e-07
4.57865e-16
-3.20864e-08
7.15565e-07
-3.20864e-08
-3.20864e-08
7.15565e-07
-6.53562e-08
-3.3454e-08
7.09766e-07
-1.0082e-07
-3.62146e-08
6.98157e-07
-1.39092e-07
-4.02965e-08
6.8054e-07
-4.55085e-08
6.55825e-07
-1.79479e-07
1.43441e-07
-9.16548e-08
6.45877e-07
-1.83459e-07
1.04561e-07
-8.13842e-08
6.72464e-07
6.80143e-08
-7.33955e-08
6.9129e-07
3.3454e-08
-6.80143e-08
7.03624e-07
1.35328e-16
-6.53562e-08
7.09766e-07
-3.3454e-08
-6.53562e-08
7.09766e-07
-6.80143e-08
-6.80143e-08
7.03624e-07
-1.04561e-07
-7.33955e-08
6.9129e-07
-1.43441e-07
-8.13842e-08
6.72464e-07
-9.16548e-08
6.45877e-07
-1.83459e-07
1.52442e-07
-1.38234e-07
6.25624e-07
-1.92056e-07
1.12172e-07
-1.23491e-07
6.56067e-07
7.33955e-08
-1.12172e-07
6.77427e-07
3.62146e-08
-1.04561e-07
6.9129e-07
1.42722e-16
-1.0082e-07
6.98157e-07
-3.62146e-08
-1.0082e-07
6.98157e-07
-7.33955e-08
-1.04561e-07
6.9129e-07
-1.12172e-07
-1.12172e-07
6.77427e-07
-1.52442e-07
-1.23491e-07
6.56067e-07
-1.38234e-07
6.25624e-07
-1.92056e-07
1.65858e-07
-1.86523e-07
5.94087e-07
-2.02273e-07
1.23491e-07
-1.65858e-07
6.30578e-07
8.13842e-08
-1.52442e-07
6.56067e-07
4.02965e-08
-1.43441e-07
6.72464e-07
1.73232e-16
-1.39092e-07
6.8054e-07
-4.02965e-08
-1.39092e-07
6.8054e-07
-8.13842e-08
-1.43441e-07
6.72464e-07
-1.23491e-07
-1.52442e-07
6.56067e-07
-1.65858e-07
-1.65858e-07
6.30578e-07
-1.86523e-07
5.94087e-07
-2.02273e-07
1.86523e-07
5.4976e-07
-2.26394e-07
-2.26394e-07
1.38234e-07
5.94087e-07
-2.02273e-07
9.16548e-08
6.25624e-07
-1.92056e-07
4.55085e-08
6.45877e-07
-1.83459e-07
-6.96523e-17
6.55825e-07
-1.79479e-07
-4.55085e-08
6.55825e-07
-1.79479e-07
-9.16548e-08
6.45877e-07
-1.83459e-07
-1.38234e-07
6.25624e-07
-1.92056e-07
-1.86523e-07
5.94087e-07
-2.02273e-07
5.4976e-07
-2.26394e-07
-2.26394e-07
1.23862e-07
1.23862e-07
5.85905e-07
-1.41934e-07
-1.41934e-07
9.73659e-08
1.21424e-07
6.41266e-07
-1.42106e-07
6.65204e-08
1.18091e-07
6.79368e-07
-1.40989e-07
3.35943e-08
1.1499e-07
7.02963e-07
-1.3915e-07
-6.65563e-16
1.13389e-07
7.14263e-07
-1.38233e-07
-3.35943e-08
1.13389e-07
7.14263e-07
-1.38233e-07
-6.65204e-08
1.1499e-07
7.02963e-07
-1.3915e-07
-9.73659e-08
1.18091e-07
6.79368e-07
-1.40989e-07
-1.23862e-07
1.21424e-07
6.41266e-07
-1.42106e-07
1.23862e-07
5.85905e-07
-1.41934e-07
-1.41934e-07
1.21424e-07
9.73659e-08
6.41266e-07
-1.42106e-07
9.3671e-08
9.3671e-08
6.86084e-07
6.31564e-08
8.97143e-08
7.14958e-07
3.16664e-08
8.65645e-08
7.3238e-07
-2.06681e-16
8.49472e-08
7.40648e-07
-3.16664e-08
8.49472e-08
7.40648e-07
-6.31564e-08
8.65645e-08
7.3238e-07
-9.3671e-08
8.97143e-08
7.14958e-07
-1.21424e-07
9.3671e-08
6.86084e-07
9.73659e-08
6.41266e-07
-1.42106e-07
1.18091e-07
6.65204e-08
6.79368e-07
-1.40989e-07
8.97143e-08
6.31564e-08
7.14958e-07
5.98842e-08
5.98842e-08
7.37087e-07
2.98834e-08
5.74649e-08
7.5039e-07
1.11946e-16
5.624e-08
7.56747e-07
-2.98834e-08
5.624e-08
7.56747e-07
-5.98842e-08
5.74649e-08
7.5039e-07
-8.97143e-08
5.98842e-08
7.37087e-07
-1.18091e-07
6.31564e-08
7.14958e-07
6.65204e-08
6.79368e-07
-1.40989e-07
1.1499e-07
3.35943e-08
7.02963e-07
-1.3915e-07
8.65645e-08
3.16664e-08
7.3238e-07
5.74649e-08
2.98834e-08
7.5039e-07
2.8606e-08
2.8606e-08
7.61341e-07
2.56087e-16
2.79641e-08
7.66648e-07
-2.8606e-08
2.79641e-08
7.66648e-07
-5.74649e-08
2.8606e-08
7.61341e-07
-8.65645e-08
2.98834e-08
7.5039e-07
-1.1499e-07
3.16664e-08
7.3238e-07
3.35943e-08
7.02963e-07
-1.3915e-07
1.13389e-07
1.04057e-16
7.14263e-07
-1.38233e-07
8.49472e-08
2.25609e-16
7.40648e-07
5.624e-08
4.66924e-16
7.56747e-07
2.79641e-08
3.71144e-16
7.66648e-07
3.44631e-17
-5.62356e-17
7.71494e-07
-2.79641e-08
2.99577e-16
7.71494e-07
-5.624e-08
4.58298e-16
7.66648e-07
-8.49472e-08
-1.72557e-18
7.56747e-07
-1.13389e-07
-1.1241e-16
7.40648e-07
1.19638e-17
7.14263e-07
-1.38233e-07
1.13389e-07
-3.35943e-08
7.14263e-07
-1.38233e-07
8.49472e-08
-3.16664e-08
7.40648e-07
5.624e-08
-2.98834e-08
7.56747e-07
2.79641e-08
-2.8606e-08
7.66648e-07
3.19352e-16
-2.79641e-08
7.71494e-07
-2.79641e-08
-2.79641e-08
7.71494e-07
-5.624e-08
-2.8606e-08
7.66648e-07
-8.49472e-08
-2.98834e-08
7.56747e-07
-1.13389e-07
-3.16664e-08
7.40648e-07
-3.35943e-08
7.14263e-07
-1.38233e-07
1.1499e-07
-6.65204e-08
7.02963e-07
-1.3915e-07
8.65645e-08
-6.31564e-08
7.3238e-07
5.74649e-08
-5.98842e-08
7.5039e-07
2.8606e-08
-5.74649e-08
7.61341e-07
2.89928e-16
-5.624e-08
7.66648e-07
-2.8606e-08
-5.624e-08
7.66648e-07
-5.74649e-08
-5.74649e-08
7.61341e-07
-8.65645e-08
-5.98842e-08
7.5039e-07
-1.1499e-07
-6.31564e-08
7.3238e-07
-6.65204e-08
7.02963e-07
-1.3915e-07
1.18091e-07
-9.73659e-08
6.79368e-07
-1.40989e-07
8.97143e-08
-9.3671e-08
7.14958e-07
5.98842e-08
-8.97143e-08
7.37087e-07
2.98834e-08
-8.65645e-08
7.5039e-07
4.38246e-16
-8.49472e-08
7.56747e-07
-2.98834e-08
-8.49472e-08
7.56747e-07
-5.98842e-08
-8.65645e-08
7.5039e-07
-8.97143e-08
-8.97143e-08
7.37087e-07
-1.18091e-07
-9.3671e-08
7.14958e-07
-9.73659e-08
6.79368e-07
-1.40989e-07
1.21424e-07
-1.23862e-07
6.41266e-07
-1.42106e-07
9.3671e-08
-1.21424e-07
6.86084e-07
6.31564e-08
-1.18091e-07
7.14958e-07
3.16664e-08
-1.1499e-07
7.3238e-07
4.79597e-16
-1.13389e-07
7.40648e-07
-3.16664e-08
-1.13389e-07
7.40648e-07
-6.31564e-08
-1.1499e-07
7.3238e-07
-9.3671e-08
-1.18091e-07
7.14958e-07
-1.21424e-07
-1.21424e-07
6.86084e-07
-1.23862e-07
6.41266e-07
-1.42106e-07
1.23862e-07
5.85905e-07
-1.41934e-07
-1.41934e-07
9.73659e-08
6.41266e-07
-1.42106e-07
6.65204e-08
6.79368e-07
-1.40989e-07
3.35943e-08
7.02963e-07
-1.3915e-07
1.0694e-16
7.14263e-07
-1.38233e-07
-3.35943e-08
7.14263e-07
-1.38233e-07
-6.65204e-08
7.02963e-07
-1.3915e-07
-9.73659e-08
6.79368e-07
-1.40989e-07
-1.23862e-07
6.41266e-07
-1.42106e-07
5.85905e-07
-1.41934e-07
-1.41934e-07
8.79249e-08
8.79249e-08
5.95771e-07
-9.2858e-08
-9.2858e-08
7.35955e-08
9.26039e-08
6.62156e-07
-9.91648e-08
5.24108e-08
9.4538e-08
7.08233e-07
-1.02218e-07
2.7144e-08
9.49487e-08
7.36829e-07
-1.03548e-07
-6.65831e-16
9.50015e-08
7.50499e-07
-1.04093e-07
-2.7144e-08
9.50015e-08
7.50499e-07
-1.04093e-07
-5.24108e-08
9.49487e-08
7.36829e-07
-1.03548e-07
-7.35955e-08
9.4538e-08
7.08233e-07
-1.02218e-07
-8.79249e-08
9.26039e-08
6.62156e-07
-9.91648e-08
8.79249e-08
5.95771e-07
-9.2858e-08
-9.2858e-08
9.26039e-08
7.35955e-08
6.62156e-07
-9.91648e-08
7.6393e-08
7.6393e-08
7.18505e-07
5.39651e-08
7.72345e-08
7.54689e-07
2.78236e-08
7.71267e-08
7.76343e-07
5.07282e-16
7.69334e-08
7.8654e-07
-2.78236e-08
7.69334e-08
7.8654e-07
-5.39651e-08
7.71267e-08
7.76343e-07
-7.6393e-08
7.72345e-08
7.54689e-07
-9.26039e-08
7.6393e-08
7.18505e-07
7.35955e-08
6.62156e-07
-9.91648e-08
9.4538e-08
5.24108e-08
7.08233e-07
-1.02218e-07
7.72345e-08
5.39651e-08
7.54689e-07
5.42205e-08
5.42205e-08
7.83115e-07
2.78755e-08
5.39642e-08
7.99898e-07
9.08083e-16
5.37388e-08
8.07817e-07
-2.78755e-08
5.37388e-08
8.07817e-07
-5.42205e-08
5.39642e-08
7.99898e-07
-7.72345e-08
5.42205e-08
7.83115e-07
-9.4538e-08
5.39651e-08
7.54689e-07
5.24108e-08
7.08233e-07
-1.02218e-07
9.49487e-08
2.7144e-08
7.36829e-07
-1.03548e-07
7.71267e-08
2.78236e-08
7.76343e-07
5.39642e-08
2.78755e-08
7.99898e-07
2.77048e-08
2.77048e-08
8.1386e-07
6.69426e-16
2.75699e-08
8.20521e-07
-2.77048e-08
2.75699e-08
8.20521e-07
-5.39642e-08
2.77048e-08
8.1386e-07
-7.71267e-08
2.78755e-08
7.99898e-07
-9.49487e-08
2.78236e-08
7.76343e-07
2.7144e-08
7.36829e-07
-1.03548e-07
9.50015e-08
-2.7548e-16
7.50499e-07
-1.04093e-07
7.69334e-08
7.60856e-16
7.8654e-07
5.37388e-08
1.03816e-15
8.07817e-07
2.75699e-08
1.04236e-15
8.20521e-07
3.39965e-16
6.73498e-16
8.26633e-07
-2.75699e-08
9.10173e-16
8.26633e-07
-5.37388e-08
1.13295e-15
8.20521e-07
-7.69334e-08
1.6048e-16
8.07817e-07
-9.50015e-08
-1.05102e-15
7.8654e-07
-9.27661e-16
7.50499e-07
-1.04093e-07
9.50015e-08
-2.7144e-08
7.50499e-07
-1.04093e-07
7.69334e-08
-2.78236e-08
7.8654e-07
5.37388e-08
-2.78755e-08
8.07817e-07
2.75699e-08
-2.77048e-08
8.20521e-07
7.1712e-16
-2.75699e-08
8.26633e-07
-2.75699e-08
-2.75699e-08
8.26633e-07
-5.37388e-08
-2.77048e-08
8.20521e-07
-7.69334e-08
-2.78755e-08
8.07817e-07
-9.50015e-08
-2.78236e-08
7.8654e-07
-2.7144e-08
7.50499e-07
-1.04093e-07
9.49487e-08
-5.24108e-08
7.36829e-07
-1.03548e-07
7.71267e-08
-5.39651e-08
7.76343e-07
5.39642e-08
-5.42205e-08
7.99898e-07
2.77048e-08
-5.39642e-08
8.1386e-07
3.99879e-16
-5.37388e-08
8.20521e-07
-2.77048e-08
-5.37388e-08
8.20521e-07
-5.39642e-08
-5.39642e-08
8.1386e-07
-7.71267e-08
-5.42205e-08
7.99898e-07
-9.49487e-08
-5.39651e-08
7.76343e-07
-5.24108e-08
7.36829e-07
-1.03548e-07
9.4538e-08
-7.35955e-08
7.08233e-07
-1.02218e-07
7.72345e-08
-7.6393e-08
7.54689e-07
5.42205e-08
-7.72345e-08
7.83115e-07
2.78755e-08
-7.71267e-08
7.99898e-07
-2.28654e-16
-7.69334e-08
8.07817e-07
-2.78755e-08
-7.69334e-08
8.07817e-07
-5.42205e-08
-7.71267e-08
7.99898e-07
-7.72345e-08
-7.72345e-08
7.83115e-07
-9.4538e-08
-7.6393e-08
7.54689e-07
-7.35955e-08
7.08233e-07
-1.02218e-07
9.26039e-08
-8.79249e-08
6.62156e-07
-9.91648e-08
7.6393e-08
-9.26039e-08
7.18505e-07
5.39651e-08
-9.4538e-08
7.54689e-07
2.78236e-08
-9.49487e-08
7.76343e-07
-8.51012e-16
-9.50015e-08
7.8654e-07
-2.78236e-08
-9.50015e-08
7.8654e-07
-5.39651e-08
-9.49487e-08
7.76343e-07
-7.6393e-08
-9.4538e-08
7.54689e-07
-9.26039e-08
-9.26039e-08
7.18505e-07
-8.79249e-08
6.62156e-07
-9.91648e-08
8.79249e-08
5.95771e-07
-9.2858e-08
-9.2858e-08
7.35955e-08
6.62156e-07
-9.91648e-08
5.24108e-08
7.08233e-07
-1.02218e-07
2.7144e-08
7.36829e-07
-1.03548e-07
-6.97287e-16
7.50499e-07
-1.04093e-07
-2.7144e-08
7.50499e-07
-1.04093e-07
-5.24108e-08
7.36829e-07
-1.03548e-07
-7.35955e-08
7.08233e-07
-1.02218e-07
-8.79249e-08
6.62156e-07
-9.91648e-08
5.95771e-07
-9.2858e-08
-9.2858e-08
3.87295e-08
3.87295e-08
5.9506e-07
-3.83743e-08
-3.83743e-08
3.44144e-08
4.44486e-08
6.66235e-07
-4.42126e-08
2.55127e-08
4.8104e-08
7.1662e-07
-4.759e-08
1.35506e-08
5.01887e-08
7.48335e-07
-4.97332e-08
-3.55026e-16
5.11463e-08
7.63616e-07
-5.07132e-08
-1.35506e-08
5.11463e-08
7.63616e-07
-5.07132e-08
-2.55127e-08
5.01887e-08
7.48335e-07
-4.97332e-08
-3.44144e-08
4.8104e-08
7.1662e-07
-4.759e-08
-3.87295e-08
4.44486e-08
6.66235e-07
-4.42126e-08
3.87295e-08
5.9506e-07
-3.83743e-08
-3.83743e-08
4.44486e-08
3.44144e-08
6.66235e-07
-4.42126e-08
3.90363e-08
3.90363e-08
7.2933e-07
2.88226e-08
4.20808e-08
7.70926e-07
1.52602e-08
4.37954e-08
7.96299e-07
1.19737e-15
4.45683e-08
8.08378e-07
-1.52602e-08
4.45683e-08
8.08378e-07
-2.88226e-08
4.37954e-08
7.96299e-07
-3.90363e-08
4.20808e-08
7.70926e-07
-4.44486e-08
3.90363e-08
7.2933e-07
3.44144e-08
6.66235e-07
-4.42126e-08
4.8104e-08
2.55127e-08
7.1662e-07
-4.759e-08
4.20808e-08
2.88226e-08
7.70926e-07
3.09679e-08
3.09679e-08
8.0534e-07
1.63659e-08
3.21669e-08
8.26128e-07
1.20891e-15
3.26987e-08
8.36053e-07
-1.63658e-08
3.26987e-08
8.36053e-07
-3.09679e-08
3.21669e-08
8.26128e-07
-4.20808e-08
3.09679e-08
8.0534e-07
-4.8104e-08
2.88226e-08
7.70926e-07
2.55127e-08
7.1662e-07
-4.759e-08
5.01887e-08
1.35506e-08
7.48335e-07
-4.97332e-08
4.37954e-08
1.52602e-08
7.96299e-07
3.21669e-08
1.63659e-08
8.26128e-07
1.69824e-08
1.69824e-08
8.44229e-07
7.34653e-16
1.72533e-08
8.52949e-07
-1.69824e-08
1.72533e-08
8.52949e-07
-3.21669e-08
1.69824e-08
8.44229e-07
-4.37954e-08
1.63659e-08
8.26128e-07
-5.01887e-08
1.52602e-08
7.96299e-07
1.35506e-08
7.48335e-07
-4.97332e-08
5.11463e-08
2.19207e-16
7.63616e-07
-5.07132e-08
4.45683e-08
1.67243e-15
8.08378e-07
3.26987e-08
1.21991e-15
8.36053e-07
1.72533e-08
9.00151e-16
8.52949e-07
7.2266e-16
9.15679e-16
8.6114e-07
-1.72533e-08
1.36793e-15
8.6114e-07
-3.26987e-08
1.53666e-15
8.52949e-07
-4.45683e-08
4.92809e-16
8.36053e-07
-5.11463e-08
-1.12916e-15
8.08378e-07
-1.6482e-15
7.63616e-07
-5.07132e-08
5.11463e-08
-1.35506e-08
7.63616e-07
-5.07132e-08
4.45683e-08
-1.52602e-08
8.08378e-07
3.26987e-08
-1.63658e-08
8.36053e-07
1.72533e-08
-1.69824e-08
8.52949e-07
1.26064e-15
-1.72533e-08
8.6114e-07
-1.72533e-08
-1.72533e-08
8.6114e-07
-3.26987e-08
-1.69824e-08
8.52949e-07
-4.45683e-08
-1.63659e-08
8.36053e-07
-5.11463e-08
-1.52602e-08
8.08378e-07
-1.35506e-08
7.63616e-07
-5.07132e-08
5.01887e-08
-2.55127e-08
7.48335e-07
-4.97332e-08
4.37954e-08
-2.88226e-08
7.96299e-07
3.21669e-08
-3.09679e-08
8.26128e-07
1.69824e-08
-3.21669e-08
8.44229e-07
1.19622e-15
-3.26987e-08
8.52949e-07
-1.69824e-08
-3.26987e-08
8.52949e-07
-3.21669e-08
-3.21669e-08
8.44229e-07
-4.37954e-08
-3.09679e-08
8.26128e-07
-5.01887e-08
-2.88226e-08
7.96299e-07
-2.55127e-08
7.48335e-07
-4.97332e-08
4.8104e-08
-3.44144e-08
7.1662e-07
-4.759e-08
4.20808e-08
-3.90363e-08
7.70926e-07
3.09679e-08
-4.20808e-08
8.0534e-07
1.63659e-08
-4.37954e-08
8.26128e-07
4.38207e-16
-4.45683e-08
8.36053e-07
-1.63658e-08
-4.45683e-08
8.36053e-07
-3.09679e-08
-4.37954e-08
8.26128e-07
-4.20808e-08
-4.20808e-08
8.0534e-07
-4.8104e-08
-3.90363e-08
7.70926e-07
-3.44144e-08
7.1662e-07
-4.759e-08
4.44486e-08
-3.87295e-08
6.66235e-07
-4.42126e-08
3.90363e-08
-4.44486e-08
7.2933e-07
2.88226e-08
-4.8104e-08
7.70926e-07
1.52602e-08
-5.01887e-08
7.96299e-07
-1.06276e-15
-5.11463e-08
8.08378e-07
-1.52602e-08
-5.11463e-08
8.08378e-07
-2.88226e-08
-5.01887e-08
7.96299e-07
-3.90363e-08
-4.8104e-08
7.70926e-07
-4.44486e-08
-4.44486e-08
7.2933e-07
-3.87295e-08
6.66235e-07
-4.42126e-08
3.87295e-08
5.9506e-07
-3.83743e-08
-3.83743e-08
3.44144e-08
6.66235e-07
-4.42126e-08
2.55127e-08
7.1662e-07
-4.759e-08
1.35506e-08
7.48335e-07
-4.97332e-08
-1.27977e-15
7.63616e-07
-5.07132e-08
-1.35506e-08
7.63616e-07
-5.07132e-08
-2.55127e-08
7.48335e-07
-4.97332e-08
-3.44144e-08
7.1662e-07
-4.759e-08
-3.87295e-08
6.66235e-07
-4.42126e-08
5.9506e-07
-3.83743e-08
-3.83743e-08
1.70549e-08
1.70549e-08
5.92959e-07
-1.60042e-08
-1.60042e-08
1.57037e-08
2.03973e-08
6.66157e-07
-1.89674e-08
1.19571e-08
2.27755e-08
7.18564e-07
-2.09725e-08
6.45469e-09
2.42787e-08
7.51868e-07
-2.23085e-08
9.16762e-17
2.49953e-08
7.6801e-07
-2.29339e-08
-6.45469e-09
2.49953e-08
7.6801e-07
-2.29339e-08
-1.19571e-08
2.42787e-08
7.51868e-07
-2.23085e-08
-1.57037e-08
2.27755e-08
7.18564e-07
-2.09725e-08
-1.70549e-08
2.03973e-08
6.66157e-07
-1.89674e-08
1.70549e-08
5.92959e-07
-1.60042e-08
-1.60042e-08
2.03973e-08
1.57037e-08
6.66157e-07
-1.89674e-08
1.8758e-08
1.8758e-08
7.32608e-07
1.42808e-08
2.09616e-08
7.77217e-07
7.69834e-09
2.2323e-08
8.04837e-07
1.18004e-15
2.29671e-08
8.18104e-07
-7.69834e-09
2.29671e-08
8.18104e-07
-1.42808e-08
2.2323e-08
8.04837e-07
-1.8758e-08
2.09616e-08
7.77217e-07
-2.03973e-08
1.8758e-08
7.32608e-07
1.57037e-08
6.66157e-07
-1.89674e-08
2.27755e-08
1.19571e-08
7.18564e-07
-2.09725e-08
2.09616e-08
1.42808e-08
7.77217e-07
1.59453e-08
1.59453e-08
8.15373e-07
8.58486e-09
1.69574e-08
8.38854e-07
1.11802e-15
1.74294e-08
8.50175e-07
-8.58486e-09
1.74294e-08
8.50175e-07
-1.59453e-08
1.69574e-08
8.38854e-07
-2.09616e-08
1.59453e-08
8.15373e-07
-2.27755e-08
1.42808e-08
7.77217e-07
1.19571e-08
7.18564e-07
-2.09725e-08
2.42787e-08
6.45469e-09
7.51868e-07
-2.23085e-08
2.2323e-08
7.69834e-09
8.04837e-07
1.69574e-08
8.58486e-09
8.38854e-07
9.12039e-09
9.12039e-09
8.59903e-07
6.83458e-16
9.36807e-09
8.70131e-07
-9.12039e-09
9.36807e-09
8.70131e-07
-1.69574e-08
9.12039e-09
8.59903e-07
-2.2323e-08
8.58486e-09
8.38854e-07
-2.42787e-08
7.69834e-09
8.04837e-07
6.45469e-09
7.51868e-07
-2.23085e-08
2.49953e-08
3.78458e-16
7.6801e-07
-2.29339e-08
2.29671e-08
1.64701e-15
8.18104e-07
1.74294e-08
1.50803e-15
8.50175e-07
9.36807e-09
1.13282e-15
8.70131e-07
6.69079e-16
1.04372e-15
8.79876e-07
-9.36807e-09
1.29841e-15
8.79876e-07
-1.74294e-08
1.13089e-15
8.70131e-07
-2.29671e-08
4.0715e-16
8.50175e-07
-2.49953e-08
-4.49453e-16
8.18104e-07
-8.9478e-16
7.6801e-07
-2.29339e-08
2.49953e-08
-6.45469e-09
7.6801e-07
-2.29339e-08
2.29671e-08
-7.69834e-09
8.18104e-07
1.74294e-08
-8.58486e-09
8.50175e-07
9.36807e-09
-9.12039e-09
8.70131e-07
9.42951e-16
-9.36807e-09
8.79876e-07
-9.36807e-09
-9.36807e-09
8.79876e-07
-1.74294e-08
-9.12039e-09
8.70131e-07
-2.29671e-08
-8.58486e-09
8.50175e-07
-2.49953e-08
-7.69834e-09
8.18104e-07
-6.45469e-09
7.6801e-07
-2.29339e-08
2.42787e-08
-1.19571e-08
7.51868e-07
-2.23085e-08
2.2323e-08
-1.42808e-08
8.04837e-07
1.69574e-08
-1.59453e-08
8.38854e-07
9.12039e-09
-1.69574e-08
8.59903e-07
6.98621e-16
-1.74294e-08
8.70131e-07
-9.12039e-09
-1.74294e-08
8.70131e-07
-1.69574e-08
-1.69573e-08
8.59903e-07
-2.2323e-08
-1.59453e-08
8.38854e-07
-2.42787e-08
-1.42808e-08
8.04837e-07
-1.19571e-08
7.51868e-07
-2.23085e-08
2.27755e-08
-1.57037e-08
7.18564e-07
-2.09725e-08
2.09616e-08
-1.8758e-08
7.77217e-07
1.59453e-08
-2.09616e-08
8.15373e-07
8.58486e-09
-2.2323e-08
8.38854e-07
-6.86019e-18
-2.29671e-08
8.50175e-07
-8.58486e-09
-2.29671e-08
8.50175e-07
-1.59453e-08
-2.2323e-08
8.38854e-07
-2.09616e-08
-2.09616e-08
8.15373e-07
-2.27755e-08
-1.8758e-08
7.77217e-07
-1.57037e-08
7.18564e-07
-2.09725e-08
2.03973e-08
-1.70549e-08
6.66157e-07
-1.89674e-08
1.8758e-08
-2.03973e-08
7.32608e-07
1.42808e-08
-2.27755e-08
7.77217e-07
7.69834e-09
-2.42787e-08
8.04837e-07
-7.12428e-16
-2.49953e-08
8.18104e-07
-7.69834e-09
-2.49953e-08
8.18104e-07
-1.42808e-08
-2.42787e-08
8.04837e-07
-1.8758e-08
-2.27755e-08
7.77217e-07
-2.03973e-08
-2.03973e-08
7.32608e-07
-1.70549e-08
6.66157e-07
-1.89674e-08
1.70549e-08
5.92959e-07
-1.60042e-08
-1.60042e-08
1.57037e-08
6.66157e-07
-1.89674e-08
1.19571e-08
7.18564e-07
-2.09725e-08
6.45469e-09
7.51868e-07
-2.23085e-08
-5.53466e-16
7.6801e-07
-2.29339e-08
-6.45469e-09
7.6801e-07
-2.29339e-08
-1.19571e-08
7.51868e-07
-2.23085e-08
-1.57037e-08
7.18564e-07
-2.09725e-08
-1.70549e-08
6.66157e-07
-1.89674e-08
5.92959e-07
-1.60042e-08
-1.60042e-08
6.09107e-09
6.09107e-09
5.91239e-07
-5.2314e-09
-5.2314e-09
5.98132e-09
7.89698e-09
6.65031e-07
-6.66184e-09
4.75376e-09
9.28691e-09
7.18222e-07
-7.71741e-09
2.63136e-09
1.02246e-08
7.52231e-07
-8.46528e-09
1.35898e-16
1.06851e-08
7.68781e-07
-8.82496e-09
-2.63136e-09
1.06851e-08
7.68781e-07
-8.82496e-09
-4.75376e-09
1.02246e-08
7.52231e-07
-8.46528e-09
-5.98132e-09
9.28691e-09
7.18222e-07
-7.71741e-09
-6.09107e-09
7.89698e-09
6.65031e-07
-6.66184e-09
6.09107e-09
5.91239e-07
-5.2314e-09
-5.2314e-09
7.89698e-09
5.98132e-09
6.65031e-07
-6.66184e-09
7.76372e-09
7.76373e-09
7.32875e-07
6.16755e-09
9.1431e-09
7.78957e-07
3.40548e-09
1.00473e-08
8.07776e-07
5.76764e-16
1.04885e-08
8.21707e-07
-3.40548e-09
1.04885e-08
8.21707e-07
-6.16755e-09
1.00473e-08
8.07776e-07
-7.76372e-09
9.1431e-09
7.78957e-07
-7.89698e-09
7.76372e-09
7.32875e-07
5.98132e-09
6.65031e-07
-6.66184e-09
9.28691e-09
4.75376e-09
7.18222e-07
-7.71741e-09
9.1431e-09
6.16755e-09
7.78957e-07
7.25189e-09
7.25189e-09
8.19155e-07
3.99464e-09
7.94848e-09
8.4421e-07
4.34056e-16
8.28397e-09
8.56375e-07
-3.99464e-09
8.28397e-09
8.56375e-07
-7.25189e-09
7.94848e-09
8.4421e-07
-9.1431e-09
7.25189e-09
8.19155e-07
-9.28691e-09
6.16755e-09
7.78957e-07
4.75376e-09
7.18222e-07
-7.71741e-09
1.02246e-08
2.63136e-09
7.52231e-07
-8.46528e-09
1.00473e-08
3.40548e-09
8.07776e-07
7.94848e-09
3.99464e-09
8.4421e-07
4.36965e-09
4.36965e-09
8.67061e-07
3.98885e-16
4.54884e-09
8.78236e-07
-4.36965e-09
4.54884e-09
8.78236e-07
-7.94847e-09
4.36965e-09
8.67061e-07
-1.00473e-08
3.99464e-09
8.4421e-07
-1.02246e-08
3.40548e-09
8.07776e-07
2.63136e-09
7.52231e-07
-8.46528e-09
1.06851e-08
3.07345e-16
7.68781e-07
-8.82496e-09
1.04885e-08
1.00657e-15
8.21707e-07
8.28397e-09
7.77952e-16
8.56375e-07
4.54884e-09
5.91628e-16
8.78236e-07
7.34387e-16
7.45831e-16
8.88974e-07
-4.54884e-09
1.21882e-15
8.88974e-07
-8.28397e-09
1.17981e-15
8.78236e-07
-1.04885e-08
7.12242e-16
8.56375e-07
-1.06851e-08
2.7384e-17
8.21707e-07
-6.07424e-16
7.68781e-07
-8.82496e-09
1.06851e-08
-2.63136e-09
7.68781e-07
-8.82496e-09
1.04885e-08
-3.40548e-09
8.21707e-07
8.28397e-09
-3.99464e-09
8.56375e-07
4.54884e-09
-4.36965e-09
8.78236e-07
1.12998e-15
-4.54884e-09
8.88974e-07
-4.54884e-09
-4.54884e-09
8.88974e-07
-8.28397e-09
-4.36965e-09
8.78236e-07
-1.04885e-08
-3.99464e-09
8.56375e-07
-1.06851e-08
-3.40548e-09
8.21707e-07
-2.63136e-09
7.68781e-07
-8.82496e-09
1.02246e-08
-4.75376e-09
7.52231e-07
-8.46528e-09
1.00473e-08
-6.16755e-09
8.07776e-07
7.94848e-09
-7.25189e-09
8.4421e-07
4.36965e-09
-7.94848e-09
8.67061e-07
1.18147e-15
-8.28397e-09
8.78236e-07
-4.36965e-09
-8.28397e-09
8.78236e-07
-7.94847e-09
-7.94847e-09
8.67061e-07
-1.00473e-08
-7.25189e-09
8.4421e-07
-1.02246e-08
-6.16755e-09
8.07776e-07
-4.75376e-09
7.52231e-07
-8.46528e-09
9.28691e-09
-5.98132e-09
7.18222e-07
-7.71741e-09
9.1431e-09
-7.76372e-09
7.78957e-07
7.25189e-09
-9.1431e-09
8.19155e-07
3.99464e-09
-1.00473e-08
8.4421e-07
7.33817e-16
-1.04885e-08
8.56375e-07
-3.99464e-09
-1.04885e-08
8.56375e-07
-7.25189e-09
-1.00473e-08
8.4421e-07
-9.1431e-09
-9.1431e-09
8.19155e-07
-9.28691e-09
-7.76373e-09
7.78957e-07
-5.98133e-09
7.18222e-07
-7.71741e-09
7.89698e-09
-6.09107e-09
6.65031e-07
-6.66184e-09
7.76372e-09
-7.89698e-09
7.32875e-07
6.16755e-09
-9.28691e-09
7.78957e-07
3.40548e-09
-1.02246e-08
8.07776e-07
2.63034e-17
-1.06851e-08
8.21707e-07
-3.40548e-09
-1.06851e-08
8.21707e-07
-6.16755e-09
-1.02246e-08
8.07776e-07
-7.76372e-09
-9.28691e-09
7.78957e-07
-7.89698e-09
-7.89698e-09
7.32875e-07
-6.09107e-09
6.65031e-07
-6.66184e-09
6.09107e-09
5.91239e-07
-5.2314e-09
-5.2314e-09
5.98132e-09
6.65031e-07
-6.66184e-09
4.75376e-09
7.18222e-07
-7.71741e-09
2.63136e-09
7.52231e-07
-8.46528e-09
-3.50441e-16
7.68781e-07
-8.82496e-09
-2.63136e-09
7.68781e-07
-8.82496e-09
-4.75376e-09
7.52231e-07
-8.46528e-09
-5.98132e-09
7.18222e-07
-7.71741e-09
-6.09107e-09
6.65031e-07
-6.66184e-09
5.91239e-07
-5.2314e-09
-5.2314e-09
1.7546e-09
1.7546e-09
5.90403e-07
-1.33636e-09
-1.33636e-09
1.87064e-09
2.53214e-09
6.64271e-07
-1.88809e-09
1.56367e-09
3.17698e-09
7.17676e-07
-2.32441e-09
8.90898e-10
3.63984e-09
7.51921e-07
-2.65783e-09
1.52976e-16
3.87291e-09
7.6862e-07
-2.8213e-09
-8.90897e-10
3.87291e-09
7.6862e-07
-2.8213e-09
-1.56367e-09
3.63984e-09
7.51921e-07
-2.65783e-09
-1.87064e-09
3.17698e-09
7.17676e-07
-2.32441e-09
-1.7546e-09
2.53213e-09
6.64271e-07
-1.88809e-09
1.7546e-09
5.90403e-07
-1.33636e-09
-1.33636e-09
2.53214e-09
1.87064e-09
6.64271e-07
-1.88809e-09
2.69496e-09
2.69496e-09
7.32549e-07
2.24665e-09
3.37999e-09
7.79202e-07
1.27388e-09
3.85498e-09
8.08534e-07
5.00921e-16
4.09312e-09
8.2276e-07
-1.27388e-09
4.09312e-09
8.2276e-07
-2.24665e-09
3.85498e-09
8.08534e-07
-2.69496e-09
3.37999e-09
7.79202e-07
-2.53213e-09
2.69496e-09
7.32549e-07
1.87064e-09
6.64271e-07
-1.88809e-09
3.17698e-09
1.56367e-09
7.17676e-07
-2.32441e-09
3.37999e-09
2.24665e-09
7.79202e-07
2.80702e-09
2.80702e-09
8.20301e-07
1.58483e-09
3.18678e-09
8.46101e-07
6.32929e-16
3.37506e-09
8.58677e-07
-1.58483e-09
3.37506e-09
8.58677e-07
-2.80701e-09
3.18678e-09
8.46101e-07
-3.37998e-09
2.80701e-09
8.20301e-07
-3.17698e-09
2.24665e-09
7.79202e-07
1.56367e-09
7.17676e-07
-2.32441e-09
3.63984e-09
8.90898e-10
7.51921e-07
-2.65783e-09
3.85498e-09
1.27388e-09
8.08534e-07
3.18677e-09
1.58483e-09
8.46101e-07
1.79328e-09
1.79328e-09
8.69848e-07
6.4198e-16
1.89593e-09
8.81508e-07
-1.79328e-09
1.89593e-09
8.81508e-07
-3.18677e-09
1.79328e-09
8.69848e-07
-3.85498e-09
1.58483e-09
8.46101e-07
-3.63984e-09
1.27388e-09
8.08534e-07
8.90897e-10
7.51921e-07
-2.65783e-09
3.87291e-09
7.98521e-17
7.6862e-07
-2.8213e-09
4.09312e-09
6.32523e-16
8.2276e-07
3.37506e-09
9.76215e-16
8.58677e-07
1.89593e-09
9.22164e-16
8.81508e-07
7.45753e-16
8.45884e-16
8.92766e-07
-1.89593e-09
8.08201e-16
8.92766e-07
-3.37506e-09
5.86289e-16
8.81508e-07
-4.09312e-09
3.72365e-16
8.58677e-07
-3.87291e-09
1.52952e-16
8.2276e-07
-3.6193e-17
7.6862e-07
-2.8213e-09
3.87291e-09
-8.90897e-10
7.6862e-07
-2.8213e-09
4.09312e-09
-1.27388e-09
8.2276e-07
3.37506e-09
-1.58483e-09
8.58677e-07
1.89593e-09
-1.79328e-09
8.81508e-07
5.97191e-16
-1.89593e-09
8.92766e-07
-1.89593e-09
-1.89593e-09
8.92766e-07
-3.37506e-09
-1.79328e-09
8.81508e-07
-4.09312e-09
-1.58483e-09
8.58677e-07
-3.87291e-09
-1.27388e-09
8.2276e-07
-8.90896e-10
7.6862e-07
-2.8213e-09
3.63984e-09
-1.56367e-09
7.51921e-07
-2.65783e-09
3.85498e-09
-2.24665e-09
8.08534e-07
3.18677e-09
-2.80701e-09
8.46101e-07
1.79328e-09
-3.18677e-09
8.69848e-07
5.32568e-16
-3.37506e-09
8.81508e-07
-1.79328e-09
-3.37506e-09
8.81508e-07
-3.18677e-09
-3.18677e-09
8.69848e-07
-3.85498e-09
-2.80701e-09
8.46101e-07
-3.63984e-09
-2.24665e-09
8.08534e-07
-1.56367e-09
7.51921e-07
-2.65783e-09
3.17698e-09
-1.87064e-09
7.17676e-07
-2.32441e-09
3.37999e-09
-2.69496e-09
7.79202e-07
2.80701e-09
-3.37998e-09
8.20301e-07
1.58483e-09
-3.85498e-09
8.46101e-07
3.45477e-16
-4.09312e-09
8.58677e-07
-1.58483e-09
-4.09312e-09
8.58677e-07
-2.80701e-09
-3.85498e-09
8.46101e-07
-3.37998e-09
-3.37999e-09
8.20301e-07
-3.17698e-09
-2.69496e-09
7.79202e-07
-1.87064e-09
7.17676e-07
-2.32441e-09
2.53213e-09
-1.7546e-09
6.64271e-07
-1.88809e-09
2.69496e-09
-2.53213e-09
7.32549e-07
2.24665e-09
-3.17698e-09
7.79202e-07
1.27388e-09
-3.63984e-09
8.08534e-07
-7.70484e-17
-3.87291e-09
8.2276e-07
-1.27388e-09
-3.87291e-09
8.2276e-07
-2.24665e-09
-3.63984e-09
8.08534e-07
-2.69496e-09
-3.17698e-09
7.79202e-07
-2.53213e-09
-2.53213e-09
7.32549e-07
-1.7546e-09
6.64271e-07
-1.88809e-09
1.7546e-09
5.90403e-07
-1.33636e-09
-1.33636e-09
1.87064e-09
6.64271e-07
-1.88809e-09
1.56367e-09
7.17676e-07
-2.32441e-09
8.90897e-10
7.51921e-07
-2.65783e-09
-3.04026e-16
7.6862e-07
-2.8213e-09
-8.90897e-10
7.6862e-07
-2.8213e-09
-1.56367e-09
7.51921e-07
-2.65783e-09
-1.87064e-09
7.17676e-07
-2.32441e-09
-1.7546e-09
6.64271e-07
-1.88809e-09
5.90403e-07
-1.33636e-09
-1.33636e-09
4.19994e-10
4.19994e-10
5.90067e-07
-2.51956e-10
-2.51956e-10
5.05325e-10
7.04689e-10
6.63916e-07
-4.35336e-10
4.5144e-10
9.54775e-10
7.17366e-07
-5.90921e-10
2.6635e-10
1.14322e-09
7.51679e-07
-7.15364e-10
4.61171e-17
1.23971e-09
7.68424e-07
-7.77131e-10
-2.6635e-10
1.23971e-09
7.68424e-07
-7.77131e-10
-4.5144e-10
1.14322e-09
7.51679e-07
-7.15364e-10
-5.05325e-10
9.54775e-10
7.17366e-07
-5.90921e-10
-4.19995e-10
7.04689e-10
6.63916e-07
-4.35336e-10
4.19995e-10
5.90067e-07
-2.51956e-10
-2.51957e-10
7.04689e-10
5.05324e-10
6.63916e-07
-4.35336e-10
8.2635e-10
8.26349e-10
7.32306e-07
7.2633e-10
1.10743e-09
7.7915e-07
4.23404e-10
1.31118e-09
8.08669e-07
8.46017e-17
1.41533e-09
8.23008e-07
-4.23404e-10
1.41533e-09
8.23008e-07
-7.2633e-10
1.31118e-09
8.08669e-07
-8.2635e-10
1.10743e-09
7.7915e-07
-7.04689e-10
8.2635e-10
7.32306e-07
5.05325e-10
6.63916e-07
-4.35336e-10
9.54774e-10
4.5144e-10
7.17366e-07
-5.9092e-10
1.10743e-09
7.2633e-10
7.7915e-07
9.64119e-10
9.6412e-10
8.20588e-07
5.57748e-10
1.13235e-09
8.46686e-07
1.54676e-16
1.21754e-09
8.59433e-07
-5.57748e-10
1.21754e-09
8.59433e-07
-9.64119e-10
1.13235e-09
8.46686e-07
-1.10743e-09
9.6412e-10
8.20588e-07
-9.54774e-10
7.2633e-10
7.7915e-07
4.51439e-10
7.17366e-07
-5.9092e-10
1.14322e-09
2.66349e-10
7.51679e-07
-7.15364e-10
1.31118e-09
4.23404e-10
8.08669e-07
1.13235e-09
5.57749e-10
8.46686e-07
6.51731e-10
6.51731e-10
8.70809e-07
3.32988e-16
6.99053e-10
8.82678e-07
-6.51731e-10
6.99053e-10
8.82678e-07
-1.13235e-09
6.51732e-10
8.70809e-07
-1.31118e-09
5.57749e-10
8.46686e-07
-1.14322e-09
4.23404e-10
8.08669e-07
2.66349e-10