/*--------------------------------*- C++ -*----------------------------------*\
| =========                 |                                                 |
| \\      /  F ield         | OpenFOAM: The Open Source CFD Toolbox           |
|  \\    /   O peration     | Version:  2412                                  |
|   \\  /    A nd           | Website:  www.openfoam.com                      |
|    \\/     M anipulation  |                                                 |
\*---------------------------------------------------------------------------*/
FoamFile
{
    version     2.0;
    format      ascii;
    arch        "LSB;label=32;scalar=64";
    class       volVectorField;
    location    "8.3";
    object      U;
}
// * * * * * * * * * * * * * * * * * * * * * * * * * * * * * * * * * * * * * //

dimensions      [0 1 -1 0 0 0 0];

internalField   nonuniform List<vector> 
15000
(
(0.0012073 0.0012073 0.0103892)
(0.00089252 0.00112934 0.0103388)
(0.000608602 0.00110265 0.0102968)
(0.00035751 0.00107646 0.0102694)
(0.000117459 0.00106443 0.0102567)
(-0.000117459 0.00106443 0.0102567)
(-0.00035751 0.00107646 0.0102694)
(-0.000608602 0.00110265 0.0102968)
(-0.00089252 0.00112934 0.0103388)
(-0.0012073 0.0012073 0.0103892)
(0.00112934 0.00089252 0.0103388)
(0.000841192 0.000841192 0.010274)
(0.000576286 0.000804377 0.0102322)
(0.000336399 0.000778335 0.0102098)
(0.000110426 0.000765751 0.0102004)
(-0.000110426 0.000765751 0.0102004)
(-0.000336399 0.000778335 0.0102098)
(-0.000576286 0.000804377 0.0102322)
(-0.000841192 0.000841192 0.010274)
(-0.00112934 0.00089252 0.0103388)
(0.00110265 0.000608602 0.0102968)
(0.000804377 0.000576286 0.0102322)
(0.000547198 0.000547198 0.010198)
(0.00031772 0.000526184 0.0101818)
(0.000104088 0.000515644 0.0101753)
(-0.000104088 0.000515644 0.0101753)
(-0.00031772 0.000526184 0.0101818)
(-0.000547198 0.000547198 0.010198)
(-0.000804377 0.000576286 0.0102322)
(-0.00110265 0.000608602 0.0102968)
(0.00107646 0.00035751 0.0102694)
(0.000778335 0.000336399 0.0102098)
(0.000526184 0.00031772 0.0101818)
(0.000304178 0.000304178 0.010169)
(9.9462e-05 0.000297296 0.0101639)
(-9.9462e-05 0.000297296 0.0101639)
(-0.000304178 0.000304178 0.010169)
(-0.000526184 0.00031772 0.0101818)
(-0.000778335 0.000336399 0.0102098)
(-0.00107646 0.00035751 0.0102694)
(0.00106443 0.000117459 0.0102567)
(0.000765751 0.000110426 0.0102004)
(0.000515644 0.000104088 0.0101753)
(0.000297296 9.9462e-05 0.0101639)
(9.70986e-05 9.70986e-05 0.0101591)
(-9.70986e-05 9.70986e-05 0.0101591)
(-0.000297296 9.9462e-05 0.0101639)
(-0.000515644 0.000104088 0.0101753)
(-0.000765751 0.000110426 0.0102004)
(-0.00106443 0.000117459 0.0102567)
(0.00106443 -0.000117459 0.0102567)
(0.000765751 -0.000110426 0.0102004)
(0.000515644 -0.000104088 0.0101753)
(0.000297296 -9.9462e-05 0.0101639)
(9.70986e-05 -9.70986e-05 0.0101591)
(-9.70986e-05 -9.70986e-05 0.0101591)
(-0.000297296 -9.9462e-05 0.0101639)
(-0.000515644 -0.000104088 0.0101753)
(-0.000765751 -0.000110426 0.0102004)
(-0.00106443 -0.000117459 0.0102567)
(0.00107646 -0.00035751 0.0102694)
(0.000778335 -0.000336399 0.0102098)
(0.000526184 -0.00031772 0.0101818)
(0.000304178 -0.000304178 0.010169)
(9.9462e-05 -0.000297296 0.0101639)
(-9.9462e-05 -0.000297296 0.0101639)
(-0.000304178 -0.000304178 0.010169)
(-0.000526184 -0.00031772 0.0101818)
(-0.000778335 -0.000336399 0.0102098)
(-0.00107646 -0.00035751 0.0102694)
(0.00110265 -0.000608602 0.0102968)
(0.000804377 -0.000576286 0.0102322)
(0.000547198 -0.000547198 0.010198)
(0.00031772 -0.000526184 0.0101818)
(0.000104088 -0.000515644 0.0101753)
(-0.000104088 -0.000515644 0.0101753)
(-0.00031772 -0.000526184 0.0101818)
(-0.000547198 -0.000547198 0.010198)
(-0.000804377 -0.000576286 0.0102322)
(-0.00110265 -0.000608602 0.0102968)
(0.00112934 -0.00089252 0.0103388)
(0.000841192 -0.000841192 0.010274)
(0.000576286 -0.000804377 0.0102322)
(0.000336399 -0.000778335 0.0102098)
(0.000110426 -0.000765751 0.0102004)
(-0.000110426 -0.000765751 0.0102004)
(-0.000336399 -0.000778335 0.0102098)
(-0.000576286 -0.000804377 0.0102322)
(-0.000841192 -0.000841192 0.010274)
(-0.00112934 -0.00089252 0.0103388)
(0.0012073 -0.0012073 0.0103892)
(0.00089252 -0.00112934 0.0103388)
(0.000608602 -0.00110265 0.0102968)
(0.00035751 -0.00107646 0.0102694)
(0.000117459 -0.00106443 0.0102567)
(-0.000117459 -0.00106443 0.0102567)
(-0.00035751 -0.00107646 0.0102694)
(-0.000608602 -0.00110265 0.0102968)
(-0.00089252 -0.00112934 0.0103388)
(-0.0012073 -0.0012073 0.0103892)
(0.00082496 0.00082496 0.0126813)
(0.000654719 0.00087483 0.0126542)
(0.000467287 0.000904126 0.0125626)
(0.000279839 0.000915594 0.0124732)
(9.27091e-05 0.000920575 0.0124224)
(-9.27091e-05 0.000920575 0.0124224)
(-0.000279839 0.000915594 0.0124732)
(-0.000467287 0.000904126 0.0125626)
(-0.000654719 0.00087483 0.0126542)
(-0.00082496 0.00082496 0.0126813)
(0.00087483 0.000654719 0.0126542)
(0.000680698 0.000680698 0.0124931)
(0.000477845 0.000687958 0.0123086)
(0.000281952 0.000686238 0.0121688)
(9.29427e-05 0.000684366 0.0120962)
(-9.29427e-05 0.000684366 0.0120962)
(-0.000281952 0.000686238 0.0121688)
(-0.000477845 0.000687958 0.0123086)
(-0.000680698 0.000680698 0.0124931)
(-0.00087483 0.000654719 0.0126542)
(0.000904126 0.000467287 0.0125626)
(0.000687958 0.000477845 0.0123086)
(0.000475814 0.000475814 0.012076)
(0.000277909 0.000470159 0.0119146)
(9.12435e-05 0.000466564 0.0118339)
(-9.12435e-05 0.000466564 0.0118339)
(-0.000277909 0.000470159 0.0119146)
(-0.000475814 0.000475814 0.012076)
(-0.000687958 0.000477845 0.0123086)
(-0.000904126 0.000467287 0.0125626)
(0.000915594 0.000279839 0.0124732)
(0.000686238 0.000281952 0.0121688)
(0.000470159 0.000277909 0.0119146)
(0.000273049 0.000273049 0.0117453)
(8.94416e-05 0.000270222 0.0116622)
(-8.94416e-05 0.000270222 0.0116622)
(-0.000273049 0.000273049 0.0117453)
(-0.000470159 0.000277909 0.0119146)
(-0.000686238 0.000281952 0.0121688)
(-0.000915594 0.000279839 0.0124732)
(0.000920575 9.27091e-05 0.0124224)
(0.000684366 9.29427e-05 0.0120962)
(0.000466564 9.12435e-05 0.0118339)
(0.000270222 8.94416e-05 0.0116622)
(8.84194e-05 8.84194e-05 0.0115784)
(-8.84194e-05 8.84194e-05 0.0115784)
(-0.000270222 8.94416e-05 0.0116622)
(-0.000466564 9.12435e-05 0.0118339)
(-0.000684366 9.29427e-05 0.0120962)
(-0.000920575 9.27091e-05 0.0124224)
(0.000920575 -9.27091e-05 0.0124224)
(0.000684366 -9.29427e-05 0.0120962)
(0.000466564 -9.12435e-05 0.0118339)
(0.000270222 -8.94416e-05 0.0116622)
(8.84194e-05 -8.84194e-05 0.0115784)
(-8.84194e-05 -8.84194e-05 0.0115784)
(-0.000270222 -8.94416e-05 0.0116622)
(-0.000466564 -9.12435e-05 0.0118339)
(-0.000684366 -9.29427e-05 0.0120962)
(-0.000920575 -9.27091e-05 0.0124224)
(0.000915594 -0.000279839 0.0124732)
(0.000686238 -0.000281952 0.0121688)
(0.000470159 -0.000277909 0.0119146)
(0.000273049 -0.000273049 0.0117453)
(8.94416e-05 -0.000270222 0.0116622)
(-8.94416e-05 -0.000270222 0.0116622)
(-0.000273049 -0.000273049 0.0117453)
(-0.000470159 -0.000277909 0.0119146)
(-0.000686238 -0.000281952 0.0121688)
(-0.000915594 -0.000279839 0.0124732)
(0.000904126 -0.000467287 0.0125626)
(0.000687958 -0.000477845 0.0123086)
(0.000475814 -0.000475814 0.012076)
(0.000277909 -0.000470159 0.0119146)
(9.12435e-05 -0.000466564 0.0118339)
(-9.12435e-05 -0.000466564 0.0118339)
(-0.000277909 -0.000470159 0.0119146)
(-0.000475814 -0.000475814 0.012076)
(-0.000687958 -0.000477845 0.0123086)
(-0.000904126 -0.000467287 0.0125626)
(0.00087483 -0.000654719 0.0126542)
(0.000680698 -0.000680698 0.0124931)
(0.000477845 -0.000687958 0.0123086)
(0.000281952 -0.000686238 0.0121688)
(9.29427e-05 -0.000684366 0.0120962)
(-9.29427e-05 -0.000684366 0.0120962)
(-0.000281952 -0.000686238 0.0121688)
(-0.000477845 -0.000687958 0.0123086)
(-0.000680698 -0.000680698 0.0124931)
(-0.00087483 -0.000654719 0.0126542)
(0.00082496 -0.00082496 0.0126813)
(0.000654719 -0.00087483 0.0126542)
(0.000467287 -0.000904126 0.0125626)
(0.000279839 -0.000915594 0.0124732)
(9.27091e-05 -0.000920575 0.0124224)
(-9.27091e-05 -0.000920575 0.0124224)
(-0.000279839 -0.000915594 0.0124732)
(-0.000467287 -0.000904126 0.0125626)
(-0.000654719 -0.00087483 0.0126542)
(-0.00082496 -0.00082496 0.0126813)
(0.000638563 0.000638563 0.0125235)
(0.000535554 0.000723136 0.012824)
(0.000404219 0.000780128 0.0129363)
(0.000250155 0.000813142 0.0129587)
(8.42955e-05 0.000828596 0.0129557)
(-8.42955e-05 0.000828596 0.0129557)
(-0.000250155 0.000813142 0.0129587)
(-0.000404219 0.000780128 0.0129363)
(-0.000535554 0.000723136 0.012824)
(-0.000638563 0.000638563 0.0125235)
(0.000723136 0.000535554 0.012824)
(0.000602963 0.000602963 0.0129568)
(0.000446383 0.000641997 0.0129215)
(0.000272757 0.000661539 0.0128482)
(9.14865e-05 0.0006698 0.0127997)
(-9.14865e-05 0.0006698 0.0127997)
(-0.000272757 0.000661539 0.0128482)
(-0.000446383 0.000641997 0.0129215)
(-0.000602963 0.000602963 0.0129568)
(-0.000723136 0.000535554 0.012824)
(0.000780128 0.000404219 0.0129363)
(0.000641997 0.000446383 0.0129215)
(0.000469125 0.000469125 0.0127836)
(0.000284012 0.000479403 0.0126521)
(9.49092e-05 0.000483343 0.0125783)
(-9.49092e-05 0.000483343 0.0125783)
(-0.000284012 0.000479403 0.0126521)
(-0.000469125 0.000469125 0.0127836)
(-0.000641997 0.000446383 0.0129215)
(-0.000780128 0.000404219 0.0129363)
(0.000813142 0.000250155 0.0129587)
(0.000661539 0.000272757 0.0128482)
(0.000479403 0.000284012 0.0126521)
(0.000288736 0.000288736 0.0124916)
(9.62882e-05 0.000290409 0.0124064)
(-9.62882e-05 0.000290409 0.0124064)
(-0.000288736 0.000288736 0.0124916)
(-0.000479403 0.000284012 0.0126521)
(-0.000661539 0.000272757 0.0128482)
(-0.000813142 0.000250155 0.0129587)
(0.000828596 8.42955e-05 0.0129557)
(0.0006698 9.14865e-05 0.0127997)
(0.000483343 9.49092e-05 0.0125783)
(0.000290409 9.62882e-05 0.0124064)
(9.6754e-05 9.6754e-05 0.0123172)
(-9.6754e-05 9.6754e-05 0.0123172)
(-0.000290409 9.62882e-05 0.0124064)
(-0.000483343 9.49092e-05 0.0125783)
(-0.0006698 9.14865e-05 0.0127997)
(-0.000828596 8.42955e-05 0.0129557)
(0.000828596 -8.42955e-05 0.0129557)
(0.0006698 -9.14865e-05 0.0127997)
(0.000483343 -9.49092e-05 0.0125783)
(0.000290409 -9.62882e-05 0.0124064)
(9.6754e-05 -9.6754e-05 0.0123172)
(-9.6754e-05 -9.6754e-05 0.0123172)
(-0.000290409 -9.62882e-05 0.0124064)
(-0.000483343 -9.49092e-05 0.0125783)
(-0.0006698 -9.14865e-05 0.0127997)
(-0.000828596 -8.42955e-05 0.0129557)
(0.000813142 -0.000250155 0.0129587)
(0.000661539 -0.000272757 0.0128482)
(0.000479403 -0.000284012 0.0126521)
(0.000288736 -0.000288736 0.0124916)
(9.62882e-05 -0.000290409 0.0124064)
(-9.62882e-05 -0.000290409 0.0124064)
(-0.000288736 -0.000288736 0.0124916)
(-0.000479403 -0.000284012 0.0126521)
(-0.000661539 -0.000272757 0.0128482)
(-0.000813142 -0.000250155 0.0129587)
(0.000780128 -0.000404219 0.0129363)
(0.000641997 -0.000446383 0.0129215)
(0.000469125 -0.000469125 0.0127836)
(0.000284012 -0.000479403 0.0126521)
(9.49092e-05 -0.000483343 0.0125783)
(-9.49092e-05 -0.000483343 0.0125783)
(-0.000284012 -0.000479403 0.0126521)
(-0.000469125 -0.000469125 0.0127836)
(-0.000641997 -0.000446383 0.0129215)
(-0.000780128 -0.000404219 0.0129363)
(0.000723136 -0.000535554 0.012824)
(0.000602963 -0.000602963 0.0129568)
(0.000446383 -0.000641997 0.0129215)
(0.000272757 -0.000661539 0.0128482)
(9.14865e-05 -0.0006698 0.0127997)
(-9.14865e-05 -0.0006698 0.0127997)
(-0.000272757 -0.000661539 0.0128482)
(-0.000446383 -0.000641997 0.0129215)
(-0.000602963 -0.000602963 0.0129568)
(-0.000723136 -0.000535554 0.012824)
(0.000638563 -0.000638563 0.0125235)
(0.000535554 -0.000723136 0.012824)
(0.000404219 -0.000780128 0.0129363)
(0.000250155 -0.000813142 0.0129587)
(8.42955e-05 -0.000828596 0.0129557)
(-8.42955e-05 -0.000828596 0.0129557)
(-0.000250155 -0.000813142 0.0129587)
(-0.000404219 -0.000780128 0.0129363)
(-0.000535554 -0.000723136 0.012824)
(-0.000638563 -0.000638563 0.0125235)
(0.000327137 0.000327137 0.0127538)
(0.000285778 0.000397948 0.0132315)
(0.000226167 0.000449407 0.0134718)
(0.000143656 0.00048323 0.0135728)
(4.90729e-05 0.000499588 0.0136062)
(-4.90729e-05 0.000499588 0.0136062)
(-0.000143656 0.00048323 0.0135728)
(-0.000226167 0.000449407 0.0134718)
(-0.000285778 0.000397948 0.0132315)
(-0.000327137 0.000327137 0.0127538)
(0.000397948 0.000285778 0.0132315)
(0.000349925 0.000349925 0.0135619)
(0.000270961 0.000394038 0.0136467)
(0.0001704 0.000420884 0.0136379)
(5.79807e-05 0.00043355 0.0136167)
(-5.79806e-05 0.00043355 0.0136167)
(-0.0001704 0.000420884 0.0136379)
(-0.000270961 0.000394038 0.0136467)
(-0.000349925 0.000349925 0.0135619)
(-0.000397948 0.000285778 0.0132315)
(0.000449407 0.000226167 0.0134718)
(0.000394038 0.000270961 0.0136467)
(0.000302013 0.000302013 0.0136086)
(0.000188642 0.000320638 0.0135236)
(6.40207e-05 0.000329339 0.0134675)
(-6.40207e-05 0.000329339 0.0134675)
(-0.000188642 0.000320638 0.0135236)
(-0.000302013 0.000302013 0.0136086)
(-0.000394038 0.000270961 0.0136467)
(-0.000449407 0.000226167 0.0134718)
(0.00048323 0.000143656 0.0135728)
(0.000420884 0.0001704 0.0136379)
(0.000320638 0.000188642 0.0135236)
(0.000199562 0.000199562 0.0133967)
(6.76362e-05 0.000204651 0.013323)
(-6.76362e-05 0.000204651 0.013323)
(-0.000199562 0.000199562 0.0133967)
(-0.000320638 0.000188642 0.0135236)
(-0.000420884 0.0001704 0.0136379)
(-0.00048323 0.000143656 0.0135728)
(0.000499588 4.90729e-05 0.0136062)
(0.00043355 5.79807e-05 0.0136167)
(0.000329339 6.40207e-05 0.0134675)
(0.000204651 6.76362e-05 0.013323)
(6.93183e-05 6.93183e-05 0.0132426)
(-6.93183e-05 6.93183e-05 0.0132426)
(-0.000204651 6.76362e-05 0.013323)
(-0.000329339 6.40207e-05 0.0134675)
(-0.00043355 5.79807e-05 0.0136167)
(-0.000499588 4.90729e-05 0.0136062)
(0.000499588 -4.90729e-05 0.0136062)
(0.00043355 -5.79806e-05 0.0136167)
(0.000329339 -6.40207e-05 0.0134675)
(0.000204651 -6.76362e-05 0.013323)
(6.93183e-05 -6.93183e-05 0.0132426)
(-6.93183e-05 -6.93183e-05 0.0132426)
(-0.000204651 -6.76362e-05 0.013323)
(-0.000329339 -6.40207e-05 0.0134675)
(-0.00043355 -5.79807e-05 0.0136167)
(-0.000499588 -4.90729e-05 0.0136062)
(0.00048323 -0.000143656 0.0135728)
(0.000420884 -0.0001704 0.0136379)
(0.000320638 -0.000188642 0.0135236)
(0.000199562 -0.000199562 0.0133967)
(6.76362e-05 -0.000204651 0.013323)
(-6.76362e-05 -0.000204651 0.013323)
(-0.000199562 -0.000199562 0.0133967)
(-0.000320638 -0.000188642 0.0135236)
(-0.000420884 -0.0001704 0.0136379)
(-0.00048323 -0.000143656 0.0135728)
(0.000449407 -0.000226167 0.0134718)
(0.000394038 -0.000270961 0.0136467)
(0.000302013 -0.000302013 0.0136086)
(0.000188642 -0.000320638 0.0135236)
(6.40207e-05 -0.000329339 0.0134675)
(-6.40207e-05 -0.000329339 0.0134675)
(-0.000188642 -0.000320638 0.0135236)
(-0.000302013 -0.000302013 0.0136086)
(-0.000394038 -0.000270961 0.0136467)
(-0.000449407 -0.000226167 0.0134718)
(0.000397948 -0.000285778 0.0132315)
(0.000349925 -0.000349925 0.0135619)
(0.000270961 -0.000394038 0.0136467)
(0.0001704 -0.000420884 0.0136379)
(5.79806e-05 -0.00043355 0.0136167)
(-5.79807e-05 -0.00043355 0.0136167)
(-0.0001704 -0.000420884 0.0136379)
(-0.000270961 -0.000394038 0.0136467)
(-0.000349925 -0.000349925 0.0135619)
(-0.000397948 -0.000285778 0.0132315)
(0.000327137 -0.000327137 0.0127538)
(0.000285778 -0.000397948 0.0132315)
(0.000226167 -0.000449407 0.0134718)
(0.000143656 -0.00048323 0.0135728)
(4.90729e-05 -0.000499588 0.0136062)
(-4.90729e-05 -0.000499588 0.0136062)
(-0.000143656 -0.00048323 0.0135728)
(-0.000226167 -0.000449407 0.0134718)
(-0.000285778 -0.000397948 0.0132315)
(-0.000327137 -0.000327137 0.0127538)
(0.000169585 0.000169585 0.0126582)
(0.000151525 0.000211384 0.0132489)
(0.000123909 0.000244644 0.0135806)
(8.01828e-05 0.000267861 0.0137436)
(2.76621e-05 0.000279391 0.0138077)
(-2.76621e-05 0.000279391 0.0138077)
(-8.01828e-05 0.000267861 0.0137436)
(-0.000123909 0.000244644 0.0135806)
(-0.000151525 0.000211384 0.0132489)
(-0.000169585 0.000169585 0.0126582)
(0.000211384 0.000151525 0.0132489)
(0.000193914 0.000193914 0.0137251)
(0.000155683 0.00022583 0.0139149)
(0.000100158 0.000246863 0.0139725)
(3.44676e-05 0.000257214 0.0139831)
(-3.44675e-05 0.000257214 0.0139831)
(-0.000100158 0.000246863 0.0139725)
(-0.000155683 0.00022583 0.0139149)
(-0.000193914 0.000193914 0.0137251)
(-0.000211384 0.000151525 0.0132489)
(0.000244644 0.000123909 0.0135806)
(0.00022583 0.000155683 0.0139149)
(0.000180107 0.000180107 0.0139844)
(0.000115382 0.000196061 0.0139645)
(3.9643e-05 0.000203877 0.0139388)
(-3.9643e-05 0.000203877 0.0139388)
(-0.000115382 0.000196061 0.0139645)
(-0.000180107 0.000180107 0.0139844)
(-0.00022583 0.000155683 0.0139149)
(-0.000244644 0.000123909 0.0135806)
(0.000267861 8.01828e-05 0.0137436)
(0.000246863 0.000100158 0.0139725)
(0.000196061 0.000115382 0.0139645)
(0.000125282 0.000125282 0.0139001)
(4.30021e-05 0.000130112 0.0138555)
(-4.30021e-05 0.000130112 0.0138555)
(-0.000125282 0.000125282 0.0139001)
(-0.000196061 0.000115382 0.0139645)
(-0.000246863 0.000100158 0.0139725)
(-0.000267861 8.01828e-05 0.0137436)
(0.000279391 2.76621e-05 0.0138077)
(0.000257214 3.44676e-05 0.0139831)
(0.000203877 3.9643e-05 0.0139388)
(0.000130112 4.30021e-05 0.0138555)
(4.46369e-05 4.46369e-05 0.0138033)
(-4.46369e-05 4.46369e-05 0.0138033)
(-0.000130112 4.30021e-05 0.0138555)
(-0.000203877 3.9643e-05 0.0139388)
(-0.000257214 3.44676e-05 0.0139831)
(-0.000279391 2.76621e-05 0.0138077)
(0.000279391 -2.76621e-05 0.0138077)
(0.000257214 -3.44675e-05 0.0139831)
(0.000203877 -3.96429e-05 0.0139388)
(0.000130112 -4.30021e-05 0.0138555)
(4.46369e-05 -4.46369e-05 0.0138033)
(-4.46369e-05 -4.46369e-05 0.0138033)
(-0.000130112 -4.30021e-05 0.0138555)
(-0.000203877 -3.9643e-05 0.0139388)
(-0.000257214 -3.44675e-05 0.0139831)
(-0.000279391 -2.76621e-05 0.0138077)
(0.000267861 -8.01828e-05 0.0137436)
(0.000246863 -0.000100158 0.0139725)
(0.000196061 -0.000115382 0.0139645)
(0.000125282 -0.000125282 0.0139001)
(4.30021e-05 -0.000130112 0.0138555)
(-4.30021e-05 -0.000130112 0.0138555)
(-0.000125282 -0.000125282 0.0139001)
(-0.000196061 -0.000115382 0.0139645)
(-0.000246863 -0.000100158 0.0139725)
(-0.000267861 -8.01828e-05 0.0137436)
(0.000244644 -0.000123909 0.0135806)
(0.00022583 -0.000155683 0.0139149)
(0.000180107 -0.000180107 0.0139844)
(0.000115382 -0.000196061 0.0139645)
(3.9643e-05 -0.000203877 0.0139388)
(-3.9643e-05 -0.000203877 0.0139388)
(-0.000115382 -0.000196061 0.0139645)
(-0.000180107 -0.000180107 0.0139844)
(-0.00022583 -0.000155683 0.0139149)
(-0.000244644 -0.000123909 0.0135806)
(0.000211384 -0.000151525 0.0132489)
(0.000193914 -0.000193914 0.0137251)
(0.000155683 -0.00022583 0.0139149)
(0.000100158 -0.000246863 0.0139725)
(3.44675e-05 -0.000257214 0.0139831)
(-3.44675e-05 -0.000257214 0.0139831)
(-0.000100158 -0.000246863 0.0139725)
(-0.000155683 -0.00022583 0.0139149)
(-0.000193913 -0.000193913 0.0137251)
(-0.000211384 -0.000151525 0.0132489)
(0.000169585 -0.000169585 0.0126582)
(0.000151525 -0.000211384 0.0132489)
(0.000123909 -0.000244644 0.0135806)
(8.01828e-05 -0.000267861 0.0137436)
(2.76621e-05 -0.000279391 0.0138077)
(-2.76621e-05 -0.000279391 0.0138077)
(-8.01828e-05 -0.000267861 0.0137436)
(-0.000123909 -0.000244644 0.0135806)
(-0.000151525 -0.000211384 0.0132489)
(-0.000169585 -0.000169585 0.0126582)
(7.07343e-05 7.07343e-05 0.0125865)
(6.61549e-05 9.31288e-05 0.013218)
(5.68287e-05 0.000112274 0.0135893)
(3.77941e-05 0.000126417 0.0137822)
(1.32266e-05 0.000133638 0.0138622)
(-1.32266e-05 0.000133638 0.0138622)
(-3.77941e-05 0.000126417 0.0137822)
(-5.68287e-05 0.000112274 0.0135893)
(-6.61549e-05 9.31288e-05 0.013218)
(-7.07343e-05 7.07343e-05 0.0125865)
(9.31288e-05 6.61549e-05 0.013218)
(9.09938e-05 9.09938e-05 0.0137616)
(7.68321e-05 0.000111368 0.0140086)
(5.09791e-05 0.000125738 0.0141068)
(1.78107e-05 0.000133069 0.0141382)
(-1.78107e-05 0.000133069 0.0141382)
(-5.09791e-05 0.000125738 0.0141068)
(-7.68321e-05 0.000111368 0.0140086)
(-9.09938e-05 9.09938e-05 0.0137616)
(-9.31288e-05 6.61549e-05 0.013218)
(0.000112274 5.68287e-05 0.0135893)
(0.000111368 7.68321e-05 0.0140086)
(9.36289e-05 9.36289e-05 0.0141466)
(6.19515e-05 0.000105341 0.0141733)
(2.16165e-05 0.000111285 0.0141711)
(-2.16164e-05 0.000111285 0.0141711)
(-6.19515e-05 0.000105341 0.0141733)
(-9.36289e-05 9.36289e-05 0.0141466)
(-0.000111368 7.68321e-05 0.0140086)
(-0.000112274 5.68287e-05 0.0135893)
(0.000126417 3.77941e-05 0.0137822)
(0.000125738 5.09791e-05 0.0141068)
(0.000105341 6.19515e-05 0.0141733)
(6.95351e-05 6.95351e-05 0.0141587)
(2.4236e-05 7.33595e-05 0.0141387)
(-2.4236e-05 7.33595e-05 0.0141387)
(-6.95351e-05 6.95351e-05 0.0141587)
(-0.000105341 6.19515e-05 0.0141733)
(-0.000125738 5.09791e-05 0.0141068)
(-0.000126417 3.77941e-05 0.0137822)
(0.000133638 1.32266e-05 0.0138622)
(0.000133069 1.78107e-05 0.0141382)
(0.000111285 2.16165e-05 0.0141711)
(7.33595e-05 2.4236e-05 0.0141387)
(2.55523e-05 2.55523e-05 0.0141116)
(-2.55523e-05 2.55523e-05 0.0141116)
(-7.33595e-05 2.4236e-05 0.0141387)
(-0.000111285 2.16165e-05 0.0141711)
(-0.000133069 1.78107e-05 0.0141382)
(-0.000133638 1.32266e-05 0.0138622)
(0.000133638 -1.32266e-05 0.0138622)
(0.000133069 -1.78107e-05 0.0141382)
(0.000111285 -2.16164e-05 0.0141711)
(7.33595e-05 -2.4236e-05 0.0141387)
(2.55523e-05 -2.55523e-05 0.0141116)
(-2.55523e-05 -2.55523e-05 0.0141116)
(-7.33595e-05 -2.4236e-05 0.0141387)
(-0.000111285 -2.16164e-05 0.0141711)
(-0.000133069 -1.78107e-05 0.0141382)
(-0.000133638 -1.32266e-05 0.0138622)
(0.000126417 -3.77941e-05 0.0137822)
(0.000125738 -5.09791e-05 0.0141068)
(0.000105341 -6.19515e-05 0.0141733)
(6.95351e-05 -6.95351e-05 0.0141587)
(2.4236e-05 -7.33595e-05 0.0141387)
(-2.4236e-05 -7.33595e-05 0.0141387)
(-6.95351e-05 -6.95351e-05 0.0141587)
(-0.000105341 -6.19515e-05 0.0141733)
(-0.000125738 -5.09791e-05 0.0141068)
(-0.000126417 -3.77941e-05 0.0137822)
(0.000112274 -5.68287e-05 0.0135893)
(0.000111368 -7.68321e-05 0.0140086)
(9.36289e-05 -9.36288e-05 0.0141466)
(6.19515e-05 -0.000105341 0.0141733)
(2.16164e-05 -0.000111285 0.0141711)
(-2.16164e-05 -0.000111285 0.0141711)
(-6.19515e-05 -0.000105341 0.0141733)
(-9.36288e-05 -9.36288e-05 0.0141466)
(-0.000111368 -7.68321e-05 0.0140086)
(-0.000112274 -5.68287e-05 0.0135893)
(9.31288e-05 -6.61549e-05 0.013218)
(9.09938e-05 -9.09938e-05 0.0137616)
(7.68321e-05 -0.000111368 0.0140086)
(5.09791e-05 -0.000125738 0.0141068)
(1.78107e-05 -0.000133069 0.0141382)
(-1.78107e-05 -0.000133069 0.0141382)
(-5.09791e-05 -0.000125738 0.0141068)
(-7.68321e-05 -0.000111368 0.0140086)
(-9.09938e-05 -9.09938e-05 0.0137616)
(-9.31288e-05 -6.61549e-05 0.013218)
(7.07343e-05 -7.07343e-05 0.0125865)
(6.61549e-05 -9.31288e-05 0.013218)
(5.68287e-05 -0.000112274 0.0135893)
(3.77941e-05 -0.000126417 0.0137822)
(1.32266e-05 -0.000133638 0.0138622)
(-1.32266e-05 -0.000133638 0.0138622)
(-3.77941e-05 -0.000126417 0.0137822)
(-5.68287e-05 -0.000112274 0.0135893)
(-6.61549e-05 -9.31288e-05 0.013218)
(-7.07343e-05 -7.07343e-05 0.0125865)
(2.48112e-05 2.48112e-05 0.0125448)
(2.44709e-05 3.46804e-05 0.0131898)
(2.22062e-05 4.37855e-05 0.0135771)
(1.5202e-05 5.0895e-05 0.0137836)
(5.40699e-06 5.46236e-05 0.0138714)
(-5.40698e-06 5.46236e-05 0.0138714)
(-1.5202e-05 5.0895e-05 0.0137836)
(-2.22062e-05 4.37855e-05 0.0135771)
(-2.44709e-05 3.46804e-05 0.0131898)
(-2.48112e-05 2.48112e-05 0.0125448)
(3.46804e-05 2.44709e-05 0.0131898)
(3.65077e-05 3.65077e-05 0.0137622)
(3.26227e-05 4.72334e-05 0.0140377)
(2.23716e-05 5.52709e-05 0.0141584)
(7.94488e-06 5.95002e-05 0.014202)
(-7.94487e-06 5.95002e-05 0.014202)
(-2.23715e-05 5.52709e-05 0.0141584)
(-3.26227e-05 4.72334e-05 0.0140377)
(-3.65077e-05 3.65077e-05 0.0137622)
(-3.46804e-05 2.44709e-05 0.0131898)
(4.37855e-05 2.22062e-05 0.0135771)
(4.72334e-05 3.26227e-05 0.0140377)
(4.20888e-05 4.20888e-05 0.0142147)
(2.88125e-05 4.90696e-05 0.0142704)
(1.02167e-05 5.27149e-05 0.0142835)
(-1.02167e-05 5.27149e-05 0.0142835)
(-2.88125e-05 4.90696e-05 0.0142704)
(-4.20888e-05 4.20888e-05 0.0142147)
(-4.72334e-05 3.26227e-05 0.0140377)
(-4.37855e-05 2.22062e-05 0.0135771)
(5.0895e-05 1.5202e-05 0.0137836)
(5.52709e-05 2.23715e-05 0.0141584)
(4.90696e-05 2.88125e-05 0.0142704)
(3.35014e-05 3.35014e-05 0.0142887)
(1.1861e-05 3.59301e-05 0.0142857)
(-1.1861e-05 3.59301e-05 0.0142857)
(-3.35014e-05 3.35014e-05 0.0142887)
(-4.90696e-05 2.88125e-05 0.0142704)
(-5.52709e-05 2.23716e-05 0.0141584)
(-5.0895e-05 1.5202e-05 0.0137836)
(5.46236e-05 5.40699e-06 0.0138714)
(5.95002e-05 7.94488e-06 0.014202)
(5.27149e-05 1.02167e-05 0.0142835)
(3.59301e-05 1.1861e-05 0.0142857)
(1.27091e-05 1.27091e-05 0.0142763)
(-1.27091e-05 1.27091e-05 0.0142763)
(-3.59301e-05 1.1861e-05 0.0142857)
(-5.27149e-05 1.02167e-05 0.0142835)
(-5.95002e-05 7.94488e-06 0.014202)
(-5.46236e-05 5.40699e-06 0.0138714)
(5.46236e-05 -5.40698e-06 0.0138714)
(5.95002e-05 -7.94487e-06 0.014202)
(5.27149e-05 -1.02167e-05 0.0142835)
(3.59301e-05 -1.1861e-05 0.0142857)
(1.27091e-05 -1.27091e-05 0.0142763)
(-1.27091e-05 -1.27091e-05 0.0142763)
(-3.59301e-05 -1.1861e-05 0.0142857)
(-5.27149e-05 -1.02167e-05 0.0142835)
(-5.95002e-05 -7.94487e-06 0.014202)
(-5.46236e-05 -5.40698e-06 0.0138714)
(5.0895e-05 -1.5202e-05 0.0137836)
(5.52709e-05 -2.23715e-05 0.0141584)
(4.90696e-05 -2.88125e-05 0.0142704)
(3.35014e-05 -3.35014e-05 0.0142887)
(1.1861e-05 -3.59301e-05 0.0142857)
(-1.1861e-05 -3.59301e-05 0.0142857)
(-3.35014e-05 -3.35014e-05 0.0142887)
(-4.90696e-05 -2.88125e-05 0.0142704)
(-5.52709e-05 -2.23715e-05 0.0141584)
(-5.0895e-05 -1.5202e-05 0.0137836)
(4.37855e-05 -2.22062e-05 0.0135771)
(4.72334e-05 -3.26227e-05 0.0140377)
(4.20888e-05 -4.20888e-05 0.0142147)
(2.88125e-05 -4.90696e-05 0.0142704)
(1.02167e-05 -5.27149e-05 0.0142835)
(-1.02167e-05 -5.27149e-05 0.0142835)
(-2.88125e-05 -4.90696e-05 0.0142704)
(-4.20888e-05 -4.20888e-05 0.0142147)
(-4.72334e-05 -3.26227e-05 0.0140377)
(-4.37855e-05 -2.22062e-05 0.0135771)
(3.46804e-05 -2.44709e-05 0.0131898)
(3.65077e-05 -3.65077e-05 0.0137622)
(3.26227e-05 -4.72334e-05 0.0140377)
(2.23715e-05 -5.52709e-05 0.0141584)
(7.94488e-06 -5.95002e-05 0.014202)
(-7.94487e-06 -5.95002e-05 0.014202)
(-2.23715e-05 -5.52709e-05 0.0141584)
(-3.26227e-05 -4.72334e-05 0.0140377)
(-3.65077e-05 -3.65077e-05 0.0137622)
(-3.46804e-05 -2.44709e-05 0.0131898)
(2.48112e-05 -2.48112e-05 0.0125448)
(2.44709e-05 -3.46804e-05 0.0131898)
(2.22062e-05 -4.37855e-05 0.0135771)
(1.5202e-05 -5.0895e-05 0.0137836)
(5.40698e-06 -5.46236e-05 0.0138714)
(-5.40698e-06 -5.46236e-05 0.0138714)
(-1.5202e-05 -5.08949e-05 0.0137836)
(-2.22062e-05 -4.37855e-05 0.0135771)
(-2.44709e-05 -3.46804e-05 0.0131898)
(-2.48112e-05 -2.48112e-05 0.0125448)
(7.36648e-06 7.36648e-06 0.0125233)
(7.86043e-06 1.11777e-05 0.0131708)
(7.66064e-06 1.49422e-05 0.0135633)
(5.43417e-06 1.80339e-05 0.0137749)
(1.97184e-06 1.96952e-05 0.0138658)
(-1.97184e-06 1.96952e-05 0.0138658)
(-5.43417e-06 1.80339e-05 0.0137749)
(-7.66064e-06 1.49422e-05 0.0135633)
(-7.86043e-06 1.11777e-05 0.0131708)
(-7.36648e-06 7.36648e-06 0.0125233)
(1.11777e-05 7.86043e-06 0.0131708)
(1.29525e-05 1.29525e-05 0.0137531)
(1.23568e-05 1.78236e-05 0.0140409)
(8.78364e-06 2.16578e-05 0.0141722)
(3.17508e-06 2.37258e-05 0.0142218)
(-3.17508e-06 2.37258e-05 0.0142218)
(-8.78364e-06 2.16578e-05 0.0141722)
(-1.23568e-05 1.78236e-05 0.0140409)
(-1.29525e-05 1.29525e-05 0.0137531)
(-1.11777e-05 7.86043e-06 0.0131708)
(1.49422e-05 7.66064e-06 0.0135633)
(1.78236e-05 1.23568e-05 0.0140409)
(1.69089e-05 1.69089e-05 0.0142366)
(1.19835e-05 2.04189e-05 0.0143076)
(4.31883e-06 2.22931e-05 0.014329)
(-4.31883e-06 2.22931e-05 0.014329)
(-1.19835e-05 2.04189e-05 0.0143076)
(-1.69089e-05 1.69089e-05 0.0142366)
(-1.78236e-05 1.23568e-05 0.0140409)
(-1.49422e-05 7.66064e-06 0.0135633)
(1.80339e-05 5.43417e-06 0.0137749)
(2.16578e-05 8.78364e-06 0.0141722)
(2.04189e-05 1.19835e-05 0.0143076)
(1.44125e-05 1.44125e-05 0.0143442)
(5.18102e-06 1.56972e-05 0.0143509)
(-5.18102e-06 1.56972e-05 0.0143509)
(-1.44125e-05 1.44125e-05 0.0143442)
(-2.04189e-05 1.19835e-05 0.0143076)
(-2.16578e-05 8.78364e-06 0.0141722)
(-1.80339e-05 5.43417e-06 0.0137749)
(1.96952e-05 1.97184e-06 0.0138658)
(2.37258e-05 3.17508e-06 0.0142218)
(2.22931e-05 4.31883e-06 0.014329)
(1.56972e-05 5.18102e-06 0.0143509)
(5.6349e-06 5.6349e-06 0.0143519)
(-5.63489e-06 5.6349e-06 0.0143519)
(-1.56972e-05 5.18103e-06 0.0143509)
(-2.22931e-05 4.31884e-06 0.014329)
(-2.37258e-05 3.17508e-06 0.0142218)
(-1.96952e-05 1.97184e-06 0.0138658)
(1.96952e-05 -1.97184e-06 0.0138658)
(2.37258e-05 -3.17508e-06 0.0142218)
(2.22931e-05 -4.31883e-06 0.014329)
(1.56972e-05 -5.18102e-06 0.0143509)
(5.6349e-06 -5.63489e-06 0.0143519)
(-5.63489e-06 -5.63489e-06 0.0143519)
(-1.56972e-05 -5.18102e-06 0.0143509)
(-2.22931e-05 -4.31883e-06 0.014329)
(-2.37258e-05 -3.17508e-06 0.0142218)
(-1.96952e-05 -1.97184e-06 0.0138658)
(1.80339e-05 -5.43417e-06 0.0137749)
(2.16578e-05 -8.78364e-06 0.0141722)
(2.04189e-05 -1.19835e-05 0.0143076)
(1.44125e-05 -1.44125e-05 0.0143442)
(5.18102e-06 -1.56972e-05 0.0143509)
(-5.18102e-06 -1.56972e-05 0.0143509)
(-1.44125e-05 -1.44125e-05 0.0143442)
(-2.04189e-05 -1.19835e-05 0.0143076)
(-2.16578e-05 -8.78363e-06 0.0141722)
(-1.80339e-05 -5.43416e-06 0.0137749)
(1.49422e-05 -7.66064e-06 0.0135633)
(1.78236e-05 -1.23568e-05 0.0140409)
(1.69089e-05 -1.69089e-05 0.0142366)
(1.19835e-05 -2.04189e-05 0.0143076)
(4.31883e-06 -2.22931e-05 0.014329)
(-4.31883e-06 -2.22931e-05 0.014329)
(-1.19835e-05 -2.04189e-05 0.0143076)
(-1.69089e-05 -1.69089e-05 0.0142366)
(-1.78236e-05 -1.23568e-05 0.0140409)
(-1.49422e-05 -7.66063e-06 0.0135633)
(1.11777e-05 -7.86043e-06 0.0131708)
(1.29525e-05 -1.29525e-05 0.0137531)
(1.23568e-05 -1.78236e-05 0.0140409)
(8.78364e-06 -2.16578e-05 0.0141722)
(3.17508e-06 -2.37258e-05 0.0142218)
(-3.17508e-06 -2.37258e-05 0.0142218)
(-8.78363e-06 -2.16578e-05 0.0141722)
(-1.23568e-05 -1.78236e-05 0.0140409)
(-1.29525e-05 -1.29525e-05 0.0137531)
(-1.11777e-05 -7.86043e-06 0.0131708)
(7.36648e-06 -7.36648e-06 0.0125233)
(7.86043e-06 -1.11777e-05 0.0131708)
(7.66064e-06 -1.49422e-05 0.0135633)