/*--------------------------------*- C++ -*----------------------------------*\
| =========                 |                                                 |
| \\      /  F ield         | OpenFOAM: The Open Source CFD Toolbox           |
|  \\    /   O peration     | Version:  2412                                  |
|   \\  /    A nd           | Website:  www.openfoam.com                      |
|    \\/     M anipulation  |                                                 |
\*---------------------------------------------------------------------------*/
FoamFile
{
    version     2.0;
    format      ascii;
    arch        "LSB;label=32;scalar=64";
    class       surfaceScalarField;
    location    "1.5";
    object      phi;
}
// * * * * * * * * * * * * * * * * * * * * * * * * * * * * * * * * * * * * * //

dimensions      [0 3 -1 0 0 0 0];

oriented        oriented;

internalField   nonuniform List<scalar> 
43700
(
1.23891e-07
1.23891e-07
5.26774e-07
-1.52268e-07
-1.52268e-07
9.01307e-08
1.07521e-07
5.66042e-07
-1.30419e-07
5.95617e-08
9.88834e-08
5.95479e-07
-1.24363e-07
2.95171e-08
9.30356e-08
6.15098e-07
-1.18377e-07
-5.10529e-15
9.03154e-08
6.24936e-07
-1.15806e-07
-2.95171e-08
9.03154e-08
6.24936e-07
-1.15806e-07
-5.95617e-08
9.30356e-08
6.15098e-07
-1.18377e-07
-9.01307e-08
9.88834e-08
5.95479e-07
-1.24363e-07
-1.23891e-07
1.07521e-07
5.66042e-07
-1.30419e-07
1.23891e-07
5.26774e-07
-1.52268e-07
-1.52268e-07
1.07521e-07
9.01306e-08
5.66042e-07
-1.30419e-07
8.01732e-08
8.01732e-08
6.00539e-07
5.31281e-08
7.32214e-08
6.26398e-07
2.64029e-08
6.85653e-08
6.43692e-07
-7.65062e-16
6.63207e-08
6.5237e-07
-2.64029e-08
6.63207e-08
6.5237e-07
-5.31281e-08
6.85653e-08
6.43692e-07
-8.01732e-08
7.32214e-08
6.26398e-07
-1.07521e-07
8.01732e-08
6.00539e-07
9.01307e-08
5.66042e-07
-1.30419e-07
9.88834e-08
5.95617e-08
5.95479e-07
-1.24363e-07
7.32214e-08
5.31281e-08
6.26398e-07
4.82981e-08
4.82981e-08
6.4972e-07
2.39661e-08
4.50794e-08
6.65381e-07
-5.20604e-17
4.35123e-08
6.73252e-07
-2.39661e-08
4.35123e-08
6.73252e-07
-4.82981e-08
4.50794e-08
6.65381e-07
-7.32214e-08
4.82981e-08
6.4972e-07
-9.88834e-08
5.31281e-08
6.26398e-07
5.95617e-08
5.95479e-07
-1.24363e-07
9.30356e-08
2.95171e-08
6.15098e-07
-1.18377e-07
6.85653e-08
2.64029e-08
6.43692e-07
4.50794e-08
2.39661e-08
6.65381e-07
2.23332e-08
2.23332e-08
6.79995e-07
5.41187e-16
2.15341e-08
6.87353e-07
-2.23332e-08
2.15341e-08
6.87353e-07
-4.50794e-08
2.23332e-08
6.79995e-07
-6.85653e-08
2.39661e-08
6.65381e-07
-9.30356e-08
2.6403e-08
6.43692e-07
2.95171e-08
6.15098e-07
-1.18377e-07
9.03154e-08
-4.36984e-15
6.24936e-07
-1.15806e-07
6.63207e-08
-4.86853e-15
6.5237e-07
4.35123e-08
-2.49287e-15
6.73252e-07
2.15341e-08
2.1321e-15
6.87353e-07
2.39372e-15
2.81389e-15
6.94461e-07
-2.15341e-08
3.37323e-15
6.94461e-07
-4.35123e-08
3.75409e-15
6.87353e-07
-6.63207e-08
7.24559e-15
6.73252e-07
-9.03154e-08
8.5638e-15
6.5237e-07
3.64235e-16
6.24936e-07
-1.15806e-07
9.03154e-08
-2.95171e-08
6.24936e-07
-1.15806e-07
6.63207e-08
-2.6403e-08
6.5237e-07
4.35123e-08
-2.39661e-08
6.73252e-07
2.15341e-08
-2.23332e-08
6.87353e-07
2.54478e-15
-2.15341e-08
6.94461e-07
-2.15341e-08
-2.15341e-08
6.94461e-07
-4.35123e-08
-2.23332e-08
6.87353e-07
-6.63207e-08
-2.39661e-08
6.73252e-07
-9.03154e-08
-2.64029e-08
6.5237e-07
-2.95171e-08
6.24936e-07
-1.15806e-07
9.30356e-08
-5.95617e-08
6.15098e-07
-1.18377e-07
6.85653e-08
-5.31281e-08
6.43692e-07
4.50794e-08
-4.82981e-08
6.65381e-07
2.23332e-08
-4.50794e-08
6.79995e-07
2.93607e-15
-4.35123e-08
6.87353e-07
-2.23332e-08
-4.35123e-08
6.87353e-07
-4.50794e-08
-4.50794e-08
6.79995e-07
-6.85653e-08
-4.82981e-08
6.65381e-07
-9.30356e-08
-5.31281e-08
6.43692e-07
-5.95617e-08
6.15098e-07
-1.18377e-07
9.88834e-08
-9.01307e-08
5.95479e-07
-1.24363e-07
7.32214e-08
-8.01732e-08
6.26398e-07
4.82981e-08
-7.32214e-08
6.4972e-07
2.39661e-08
-6.85653e-08
6.65381e-07
5.89301e-15
-6.63207e-08
6.73252e-07
-2.39661e-08
-6.63207e-08
6.73252e-07
-4.82981e-08
-6.85653e-08
6.65381e-07
-7.32214e-08
-7.32214e-08
6.4972e-07
-9.88834e-08
-8.01732e-08
6.26398e-07
-9.01307e-08
5.95479e-07
-1.24363e-07
1.07521e-07
-1.23891e-07
5.66042e-07
-1.30419e-07
8.01732e-08
-1.07521e-07
6.00539e-07
5.31281e-08
-9.88834e-08
6.26398e-07
2.6403e-08
-9.30356e-08
6.43692e-07
6.92243e-15
-9.03154e-08
6.5237e-07
-2.64029e-08
-9.03154e-08
6.5237e-07
-5.31281e-08
-9.30356e-08
6.43692e-07
-8.01732e-08
-9.88834e-08
6.26398e-07
-1.07521e-07
-1.07521e-07
6.00539e-07
-1.23891e-07
5.66042e-07
-1.30419e-07
1.23891e-07
5.26774e-07
-1.52268e-07
-1.52268e-07
9.01307e-08
5.66042e-07
-1.30419e-07
5.95617e-08
5.95479e-07
-1.24363e-07
2.95171e-08
6.15098e-07
-1.18377e-07
2.89892e-15
6.24936e-07
-1.15806e-07
-2.95171e-08
6.24936e-07
-1.15806e-07
-5.95617e-08
6.15098e-07
-1.18377e-07
-9.01307e-08
5.95479e-07
-1.24363e-07
-1.23891e-07
5.66042e-07
-1.30419e-07
5.26774e-07
-1.52268e-07
-1.52268e-07
4.68533e-08
4.68533e-08
5.37945e-07
-5.24388e-08
-5.24388e-08
3.7374e-08
4.66785e-08
5.79979e-07
-5.1136e-08
2.62501e-08
4.72304e-08
6.11731e-07
-5.2358e-08
1.34797e-08
4.73078e-08
6.33022e-07
-5.24615e-08
-3.05647e-15
4.73866e-08
6.43734e-07
-5.27044e-08
-1.34798e-08
4.73866e-08
6.43734e-07
-5.27044e-08
-2.62501e-08
4.73078e-08
6.33022e-07
-5.24615e-08
-3.7374e-08
4.72304e-08
6.11731e-07
-5.2358e-08
-4.68533e-08
4.66785e-08
5.79979e-07
-5.1136e-08
4.68533e-08
5.37945e-07
-5.24388e-08
-5.24388e-08
4.66785e-08
3.7374e-08
5.79979e-07
-5.1136e-08
3.81333e-08
3.81333e-08
6.17629e-07
2.70021e-08
3.86125e-08
6.46147e-07
1.39654e-08
3.87117e-08
6.65325e-07
3.38372e-16
3.87487e-08
6.74973e-07
-1.39654e-08
3.87487e-08
6.74973e-07
-2.70021e-08
3.87117e-08
6.65325e-07
-3.81333e-08
3.86125e-08
6.46147e-07
-4.66785e-08
3.81333e-08
6.17629e-07
3.7374e-08
5.79979e-07
-5.1136e-08
4.72304e-08
2.62501e-08
6.11731e-07
-5.2358e-08
3.86125e-08
2.70021e-08
6.46147e-07
2.73219e-08
2.73219e-08
6.72301e-07
1.41317e-08
2.73765e-08
6.89906e-07
1.27098e-15
2.73772e-08
6.98756e-07
-1.41317e-08
2.73772e-08
6.98756e-07
-2.73219e-08
2.73765e-08
6.89906e-07
-3.86125e-08
2.73219e-08
6.72301e-07
-4.72304e-08
2.70021e-08
6.46147e-07
2.62501e-08
6.11731e-07
-5.2358e-08
4.73078e-08
1.34797e-08
6.33022e-07
-5.24615e-08
3.87117e-08
1.39654e-08
6.65325e-07
2.73765e-08
1.41317e-08
6.89906e-07
1.41541e-08
1.41541e-08
7.0644e-07
1.8756e-15
1.41465e-08
7.14738e-07
-1.41541e-08
1.41465e-08
7.14738e-07
-2.73765e-08
1.41541e-08
7.0644e-07
-3.87117e-08
1.41317e-08
6.89906e-07
-4.73078e-08
1.39654e-08
6.65325e-07
1.34798e-08
6.33022e-07
-5.24615e-08
4.73866e-08
-2.61295e-15
6.43734e-07
-5.27044e-08
3.87487e-08
-4.03679e-15
6.74973e-07
2.73772e-08
-9.76615e-16
6.98756e-07
1.41465e-08
2.48365e-15
7.14738e-07
2.92076e-15
3.26702e-15
7.22754e-07
-1.41465e-08
2.89758e-15
7.22754e-07
-2.73772e-08
2.65968e-15
7.14738e-07
-3.87487e-08
8.01378e-15
6.98756e-07
-4.73866e-08
7.56249e-15
6.74973e-07
-7.51963e-16
6.43734e-07
-5.27044e-08
4.73866e-08
-1.34798e-08
6.43734e-07
-5.27044e-08
3.87487e-08
-1.39654e-08
6.74973e-07
2.73772e-08
-1.41317e-08
6.98756e-07
1.41465e-08
-1.41541e-08
7.14738e-07
2.37148e-15
-1.41465e-08
7.22754e-07
-1.41465e-08
-1.41465e-08
7.22754e-07
-2.73772e-08
-1.41541e-08
7.14738e-07
-3.87487e-08
-1.41317e-08
6.98756e-07
-4.73866e-08
-1.39654e-08
6.74973e-07
-1.34797e-08
6.43734e-07
-5.27044e-08
4.73078e-08
-2.62501e-08
6.33022e-07
-5.24615e-08
3.87117e-08
-2.70021e-08
6.65325e-07
2.73765e-08
-2.73219e-08
6.89906e-07
1.41541e-08
-2.73765e-08
7.0644e-07
2.98142e-15
-2.73772e-08
7.14738e-07
-1.41541e-08
-2.73772e-08
7.14738e-07
-2.73765e-08
-2.73765e-08
7.0644e-07
-3.87117e-08
-2.73219e-08
6.89906e-07
-4.73078e-08
-2.70021e-08
6.65325e-07
-2.62501e-08
6.33022e-07
-5.24615e-08
4.72304e-08
-3.7374e-08
6.11731e-07
-5.2358e-08
3.86125e-08
-3.81333e-08
6.46147e-07
2.73219e-08
-3.86125e-08
6.72301e-07
1.41317e-08
-3.87117e-08
6.89906e-07
5.73883e-15
-3.87487e-08
6.98756e-07
-1.41317e-08
-3.87487e-08
6.98756e-07
-2.73219e-08
-3.87117e-08
6.89906e-07
-3.86125e-08
-3.86125e-08
6.72301e-07
-4.72304e-08
-3.81333e-08
6.46147e-07
-3.7374e-08
6.11731e-07
-5.23579e-08
4.66785e-08
-4.68533e-08
5.79979e-07
-5.1136e-08
3.81333e-08
-4.66785e-08
6.17629e-07
2.70021e-08
-4.72304e-08
6.46147e-07
1.39654e-08
-4.73078e-08
6.65325e-07
6.59478e-15
-4.73866e-08
6.74973e-07
-1.39654e-08
-4.73866e-08
6.74973e-07
-2.70021e-08
-4.73078e-08
6.65325e-07
-3.81333e-08
-4.72304e-08
6.46147e-07
-4.66785e-08
-4.66785e-08
6.17629e-07
-4.68533e-08
5.79979e-07
-5.1136e-08
4.68533e-08
5.37945e-07
-5.24388e-08
-5.24388e-08
3.7374e-08
5.79979e-07
-5.1136e-08
2.62501e-08
6.11731e-07
-5.2358e-08
1.34798e-08
6.33022e-07
-5.24615e-08
-1.46418e-15
6.43734e-07
-5.27044e-08
-1.34797e-08
6.43734e-07
-5.27044e-08
-2.62501e-08
6.33022e-07
-5.24615e-08
-3.7374e-08
6.11731e-07
-5.23579e-08
-4.68533e-08
5.79979e-07
-5.1136e-08
5.37945e-07
-5.24388e-08
-5.24388e-08
2.21729e-08
2.21729e-08
5.40309e-07
-2.33549e-08
-2.33549e-08
1.82678e-08
2.26986e-08
5.8467e-07
-2.34853e-08
1.30336e-08
2.32334e-08
6.18115e-07
-2.43839e-08
6.74611e-09
2.34539e-08
6.40546e-07
-2.46904e-08
-6.78186e-16
2.35649e-08
6.51819e-07
-2.49038e-08
-6.74611e-09
2.35649e-08
6.51819e-07
-2.49038e-08
-1.30336e-08
2.34539e-08
6.40546e-07
-2.46904e-08
-1.82678e-08
2.32334e-08
6.18115e-07
-2.43839e-08
-2.21729e-08
2.26986e-08
5.8467e-07
-2.34853e-08
2.21729e-08
5.40309e-07
-2.33549e-08
-2.33549e-08
2.26986e-08
1.82678e-08
5.8467e-07
-2.34853e-08
1.90972e-08
1.90972e-08
6.24832e-07
1.372e-08
1.95608e-08
6.55196e-07
7.15013e-09
1.97556e-08
6.75593e-07
8.83729e-16
1.98447e-08
6.85844e-07
-7.15013e-09
1.98447e-08
6.85844e-07
-1.372e-08
1.97556e-08
6.75593e-07
-1.90972e-08
1.95608e-08
6.55196e-07
-2.26986e-08
1.90972e-08
6.24832e-07
1.82678e-08
5.8467e-07
-2.34853e-08
2.32334e-08
1.30336e-08
6.18115e-07
-2.43839e-08
1.95609e-08
1.372e-08
6.55196e-07
1.40698e-08
1.40698e-08
6.83283e-07
7.34423e-09
1.42271e-08
7.0216e-07
2.24462e-15
1.4298e-08
7.11647e-07
-7.34423e-09
1.4298e-08
7.11647e-07
-1.40698e-08
1.4227e-08
7.0216e-07
-1.95609e-08
1.40698e-08
6.83283e-07
-2.32334e-08
1.372e-08
6.55196e-07
1.30336e-08
6.18115e-07
-2.43839e-08
2.34539e-08
6.74612e-09
6.40546e-07
-2.46904e-08
1.97556e-08
7.15012e-09
6.75593e-07
1.4227e-08
7.34423e-09
7.0216e-07
7.43709e-09
7.43709e-09
7.2002e-07
3.03404e-15
7.47891e-09
7.28994e-07
-7.43709e-09
7.47891e-09
7.28994e-07
-1.4227e-08
7.43709e-09
7.2002e-07
-1.97556e-08
7.34423e-09
7.0216e-07
-2.34539e-08
7.15013e-09
6.75593e-07
6.74611e-09
6.40546e-07
-2.46904e-08
2.35649e-08
1.39544e-15
6.51819e-07
-2.49038e-08
1.98447e-08
-7.07588e-16
6.85844e-07
1.4298e-08
2.62108e-15
7.11647e-07
7.47891e-09
4.66438e-15
7.28994e-07
3.08139e-15
4.03342e-15
7.37712e-07
-7.47891e-09
2.77257e-15
7.37712e-07
-1.4298e-08
1.71368e-15
7.28994e-07
-1.98447e-08
5.12652e-15
7.11647e-07
-2.35649e-08
5.31253e-15
6.85844e-07
8.26565e-16
6.51819e-07
-2.49038e-08
2.35649e-08
-6.74611e-09
6.51819e-07
-2.49038e-08
1.98447e-08
-7.15013e-09
6.85844e-07
1.4298e-08
-7.34423e-09
7.11647e-07
7.47891e-09
-7.43708e-09
7.28994e-07
1.17261e-15
-7.47891e-09
7.37712e-07
-7.47891e-09
-7.47891e-09
7.37712e-07
-1.4298e-08
-7.43709e-09
7.28994e-07
-1.98447e-08
-7.34422e-09
7.11647e-07
-2.35649e-08
-7.15012e-09
6.85844e-07
-6.74611e-09
6.51819e-07
-2.49038e-08
2.34539e-08
-1.30336e-08
6.40546e-07
-2.46904e-08
1.97556e-08
-1.372e-08
6.75593e-07
1.4227e-08
-1.40698e-08
7.0216e-07
7.43709e-09
-1.4227e-08
7.2002e-07
1.13378e-15
-1.4298e-08
7.28994e-07
-7.43709e-09
-1.4298e-08
7.28994e-07
-1.4227e-08
-1.4227e-08
7.2002e-07
-1.97556e-08
-1.40698e-08
7.0216e-07
-2.34539e-08
-1.372e-08
6.75593e-07
-1.30336e-08
6.40546e-07
-2.46904e-08
2.32334e-08
-1.82678e-08
6.18115e-07
-2.43839e-08
1.95608e-08
-1.90972e-08
6.55196e-07
1.40698e-08
-1.95608e-08
6.83283e-07
7.34423e-09
-1.97556e-08
7.0216e-07
4.01415e-15
-1.98447e-08
7.11647e-07
-7.34422e-09
-1.98447e-08
7.11647e-07
-1.40698e-08
-1.97556e-08
7.0216e-07
-1.95608e-08
-1.95608e-08
6.83283e-07
-2.32334e-08
-1.90972e-08
6.55196e-07
-1.82678e-08
6.18115e-07
-2.43839e-08
2.26986e-08
-2.21729e-08
5.8467e-07
-2.34853e-08
1.90972e-08
-2.26986e-08
6.24832e-07
1.372e-08
-2.32334e-08
6.55196e-07
7.15013e-09
-2.34539e-08
6.75593e-07
2.87033e-15
-2.35649e-08
6.85844e-07
-7.15012e-09
-2.35649e-08
6.85844e-07
-1.372e-08
-2.34539e-08
6.75593e-07
-1.90972e-08
-2.32334e-08
6.55196e-07
-2.26986e-08
-2.26986e-08
6.24832e-07
-2.21729e-08
5.8467e-07
-2.34853e-08
2.21729e-08
5.40309e-07
-2.33549e-08
-2.33549e-08
1.82678e-08
5.8467e-07
-2.34853e-08
1.30336e-08
6.18115e-07
-2.43839e-08
6.74611e-09
6.40546e-07
-2.46904e-08
-1.46463e-16
6.51819e-07
-2.49038e-08
-6.74611e-09
6.51819e-07
-2.49038e-08
-1.30336e-08
6.40546e-07
-2.46904e-08
-1.82678e-08
6.18115e-07
-2.43839e-08
-2.21729e-08
5.8467e-07
-2.34853e-08
5.40309e-07
-2.33549e-08
-2.33549e-08
7.91336e-09
7.91336e-09
5.40176e-07
-7.84693e-09
-7.84693e-09
6.85104e-09
8.67605e-09
5.8547e-07
-8.41341e-09
5.05126e-09
9.2943e-09
6.19716e-07
-9.09546e-09
2.66624e-09
9.64448e-09
6.42736e-07
-9.44895e-09
1.46547e-15
9.81677e-09
6.54314e-07
-9.64507e-09
-2.66623e-09
9.81676e-09
6.54314e-07
-9.64507e-09
-5.05125e-09
9.64447e-09
6.42736e-07
-9.44894e-09
-6.85103e-09
9.2943e-09
6.19716e-07
-9.09546e-09
-7.91336e-09
8.67606e-09
5.8547e-07
-8.41341e-09
7.91337e-09
5.40176e-07
-7.84693e-09
-7.84694e-09
8.67606e-09
6.85103e-09
5.8547e-07
-8.41341e-09
7.66297e-09
7.66297e-09
6.26858e-07
5.68994e-09
8.215e-09
6.58249e-07
3.02211e-09
8.52928e-09
6.79376e-07
-1.87648e-16
8.67927e-09
6.90003e-07
-3.02211e-09
8.67927e-09
6.90003e-07
-5.68994e-09
8.52928e-09
6.79376e-07
-7.66298e-09
8.21499e-09
6.58249e-07
-8.67605e-09
7.66298e-09
6.26858e-07
6.85104e-09
5.8547e-07
-8.4134e-09
9.2943e-09
5.05125e-09
6.19716e-07
-9.09546e-09
8.21499e-09
5.68994e-09
6.58249e-07
6.09999e-09
6.1e-09
6.87513e-07
3.24106e-09
6.33408e-09
7.07214e-07
1.61412e-15
6.44385e-09
7.17123e-07
-3.24106e-09
6.44385e-09
7.17123e-07
-6.09999e-09
6.33408e-09
7.07214e-07
-8.215e-09
6.09999e-09
6.87513e-07
-9.29431e-09
5.68994e-09
6.58249e-07
5.05125e-09
6.19716e-07
-9.09546e-09
9.64447e-09
2.66624e-09
6.42736e-07
-9.44894e-09
8.52928e-09
3.0221e-09
6.79376e-07
6.33408e-09
3.24106e-09
7.07214e-07
3.36649e-09
3.36649e-09
7.25955e-07
2.58971e-15
3.42483e-09
7.3538e-07
-3.36648e-09
3.42483e-09
7.3538e-07
-6.33407e-09
3.36649e-09
7.25955e-07
-8.52928e-09
3.24106e-09
7.07214e-07
-9.64447e-09
3.02211e-09
6.79376e-07
2.66624e-09
6.42736e-07
-9.44894e-09
9.81677e-09
4.14109e-16
6.54314e-07
-9.64507e-09
8.67927e-09
-7.55522e-16
6.90003e-07
6.44385e-09
1.39214e-15
7.17123e-07
3.42483e-09
2.75432e-15
7.3538e-07
3.16559e-15
3.55246e-15
7.44561e-07
-3.42482e-09
2.75817e-15
7.44561e-07
-6.44384e-09
2.05785e-15
7.3538e-07
-8.67927e-09
4.27554e-15
7.17123e-07
-9.81676e-09
3.37857e-15
6.90003e-07
5.26264e-16
6.54314e-07
-9.64507e-09
9.81676e-09
-2.66624e-09
6.54314e-07
-9.64507e-09
8.67927e-09
-3.02211e-09
6.90003e-07
6.44384e-09
-3.24106e-09
7.17123e-07
3.42482e-09
-3.36648e-09
7.3538e-07
2.38668e-15
-3.42482e-09
7.44561e-07
-3.42482e-09
-3.42482e-09
7.44561e-07
-6.44384e-09
-3.36648e-09
7.3538e-07
-8.67926e-09
-3.24106e-09
7.17123e-07
-9.81676e-09
-3.0221e-09
6.90003e-07
-2.66623e-09
6.54314e-07
-9.64507e-09
9.64447e-09
-5.05125e-09
6.42736e-07
-9.44894e-09
8.52927e-09
-5.68994e-09
6.79376e-07
6.33408e-09
-6.1e-09
7.07214e-07
3.36649e-09
-6.33408e-09
7.25955e-07
2.15469e-15
-6.44384e-09
7.3538e-07
-3.36648e-09
-6.44384e-09
7.3538e-07
-6.33407e-09
-6.33407e-09
7.25955e-07
-8.52928e-09
-6.09999e-09
7.07214e-07
-9.64447e-09
-5.68993e-09
6.79376e-07
-5.05126e-09
6.42736e-07
-9.44894e-09
9.29431e-09
-6.85103e-09
6.19716e-07
-9.09546e-09
8.21499e-09
-7.66297e-09
6.58249e-07
6.09999e-09
-8.215e-09
6.87513e-07
3.24106e-09
-8.52928e-09
7.07214e-07
3.70859e-15
-8.67927e-09
7.17123e-07
-3.24106e-09
-8.67927e-09
7.17123e-07
-6.09999e-09
-8.52928e-09
7.07214e-07
-8.21499e-09
-8.21499e-09
6.87513e-07
-9.2943e-09
-7.66297e-09
6.58249e-07
-6.85104e-09
6.19716e-07
-9.09545e-09
8.67606e-09
-7.91336e-09
5.8547e-07
-8.41341e-09
7.66298e-09
-8.67605e-09
6.26858e-07
5.68995e-09
-9.29431e-09
6.58249e-07
3.02211e-09
-9.64447e-09
6.79376e-07
3.12675e-15
-9.81676e-09
6.90003e-07
-3.0221e-09
-9.81677e-09
6.90003e-07
-5.68994e-09
-9.64447e-09
6.79376e-07
-7.66297e-09
-9.29429e-09
6.58249e-07
-8.67606e-09
-8.67605e-09
6.26858e-07
-7.91337e-09
5.8547e-07
-8.4134e-09
7.91336e-09
5.40176e-07
-7.84693e-09
-7.84694e-09
6.85104e-09
5.8547e-07
-8.4134e-09
5.05125e-09
6.19716e-07
-9.09547e-09
2.66624e-09
6.42736e-07
-9.44894e-09
1.91805e-16
6.54314e-07
-9.64507e-09
-2.66624e-09
6.54314e-07
-9.64507e-09
-5.05125e-09
6.42736e-07
-9.44894e-09
-6.85103e-09
6.19716e-07
-9.09545e-09
-7.91336e-09
5.8547e-07
-8.4134e-09
5.40176e-07
-7.84694e-09
-7.84694e-09
2.67036e-09
2.67036e-09
5.39969e-07
-2.56697e-09
-2.56696e-09
2.37155e-09
3.04711e-09
5.8556e-07
-2.8383e-09
1.77922e-09
3.36082e-09
6.20084e-07
-3.1363e-09
9.49242e-10
3.55691e-09
6.4332e-07
-3.31063e-09
-1.5439e-15
3.65626e-09
6.55013e-07
-3.40593e-09
-9.49247e-10
3.65626e-09
6.55013e-07
-3.40593e-09
-1.77922e-09
3.55691e-09
6.4332e-07
-3.31063e-09
-2.37154e-09
3.3608e-09
6.20084e-07
-3.1363e-09
-2.67035e-09
3.04711e-09
5.8556e-07
-2.8383e-09
2.67035e-09
5.39969e-07
-2.56695e-09
-2.56696e-09
3.04713e-09
2.37155e-09
5.8556e-07
-2.8383e-09
2.77648e-09
2.77647e-09
6.274e-07
2.10698e-09
3.07763e-09
6.59201e-07
1.13373e-09
3.2671e-09
6.80639e-07
1.09609e-15
3.36145e-09
6.91432e-07
-1.13373e-09
3.36145e-09
6.91432e-07
-2.10698e-09
3.2671e-09
6.80639e-07
-2.77647e-09
3.07762e-09
6.59201e-07
-3.04711e-09
2.77646e-09
6.274e-07
2.37153e-09
5.8556e-07
-2.8383e-09
3.36082e-09
1.77921e-09
6.20084e-07
-3.1363e-09
3.07763e-09
2.10698e-09
6.59201e-07
2.34152e-09
2.34152e-09
6.88985e-07
1.26193e-09
2.48949e-09
7.09071e-07
3.0803e-15
2.56232e-09
7.19184e-07
-1.26192e-09
2.56232e-09
7.19184e-07
-2.34152e-09
2.48948e-09
7.09071e-07
-3.07763e-09
2.34152e-09
6.88985e-07
-3.36082e-09
2.10697e-09
6.59201e-07
1.77921e-09
6.20084e-07
-3.13631e-09
3.55691e-09
9.49244e-10
6.4332e-07
-3.31063e-09
3.2671e-09
1.13373e-09
6.80639e-07
2.48948e-09
1.26193e-09
7.09071e-07
1.34301e-09
1.34301e-09
7.28248e-07
3.64528e-15
1.38269e-09
7.37903e-07
-1.343e-09
1.38269e-09
7.37903e-07
-2.48948e-09
1.34301e-09
7.28248e-07
-3.26709e-09
1.26193e-09
7.09071e-07
-3.55691e-09
1.13372e-09
6.80639e-07
9.49239e-10
6.4332e-07
-3.31063e-09
3.65626e-09
-1.0925e-15
6.55013e-07
-3.40593e-09
3.36145e-09
3.2281e-15
6.91432e-07
2.56232e-09
4.65064e-15
7.19184e-07
1.38269e-09
4.77059e-15
7.37903e-07
3.0605e-15
4.33954e-15
7.47327e-07
-1.38269e-09
2.64211e-15
7.47327e-07
-2.56231e-09
1.22628e-15
7.37903e-07
-3.36144e-09
2.02504e-15
7.19184e-07
-3.65625e-09
6.55894e-16
6.91432e-07
1.33841e-16
6.55013e-07
-3.40593e-09
3.65626e-09
-9.49246e-10
6.55013e-07
-3.40593e-09
3.36145e-09
-1.13372e-09
6.91432e-07
2.56231e-09
-1.26192e-09
7.19184e-07
1.38269e-09
-1.343e-09
7.37903e-07
1.37288e-15
-1.38269e-09
7.47327e-07
-1.38269e-09
-1.38269e-09
7.47327e-07
-2.56231e-09
-1.34301e-09
7.37903e-07
-3.36145e-09
-1.26192e-09
7.19184e-07
-3.65626e-09
-1.13372e-09
6.91432e-07
-9.4924e-10
6.55013e-07
-3.40593e-09
3.55691e-09
-1.77921e-09
6.4332e-07
-3.31063e-09
3.26709e-09
-2.10697e-09
6.80639e-07
2.48948e-09
-2.34151e-09
7.09071e-07
1.34301e-09
-2.48948e-09
7.28248e-07
3.079e-16
-2.56231e-09
7.37903e-07
-1.34301e-09
-2.56231e-09
7.37903e-07
-2.48948e-09
-2.48948e-09
7.28248e-07
-3.2671e-09
-2.34151e-09
7.09071e-07
-3.55691e-09
-2.10697e-09
6.80639e-07
-1.77921e-09
6.4332e-07
-3.31063e-09
3.3608e-09
-2.37154e-09
6.20084e-07
-3.1363e-09
3.07762e-09
-2.77646e-09
6.59201e-07
2.34151e-09
-3.07762e-09
6.88985e-07
1.26193e-09
-3.2671e-09
7.09071e-07
1.2098e-15
-3.36145e-09
7.19184e-07
-1.26192e-09
-3.36145e-09
7.19184e-07
-2.34151e-09
-3.2671e-09
7.09071e-07
-3.07762e-09
-3.07762e-09
6.88985e-07
-3.36081e-09
-2.77647e-09
6.59201e-07
-2.37154e-09
6.20084e-07
-3.13629e-09
3.04712e-09
-2.67035e-09
5.8556e-07
-2.8383e-09
2.77647e-09
-3.0471e-09
6.274e-07
2.10697e-09
-3.36081e-09
6.59201e-07
1.13372e-09
-3.55691e-09
6.80639e-07
1.93866e-16
-3.65626e-09
6.91432e-07
-1.13372e-09
-3.65626e-09
6.91432e-07
-2.10697e-09
-3.55691e-09
6.80639e-07
-2.77647e-09
-3.36081e-09
6.59201e-07
-3.04711e-09
-3.04711e-09
6.274e-07
-2.67036e-09
5.8556e-07
-2.83829e-09
2.67035e-09
5.39969e-07
-2.56696e-09
-2.56696e-09
2.37154e-09
5.8556e-07
-2.83829e-09
1.77921e-09
6.20084e-07
-3.1363e-09
9.4924e-10
6.4332e-07
-3.31063e-09
1.80105e-15
6.55013e-07
-3.40593e-09
-9.49238e-10
6.55013e-07
-3.40594e-09
-1.77921e-09
6.4332e-07
-3.31063e-09
-2.37154e-09
6.20084e-07
-3.13629e-09
-2.67036e-09
5.8556e-07
-2.83829e-09
5.39969e-07
-2.56696e-09
-2.56696e-09
9.43214e-10
9.4322e-10
5.39864e-07
-8.90587e-10
-8.90588e-10
8.48102e-10
1.09359e-09
5.85557e-07
-9.95707e-10
6.41413e-10
1.22049e-09
6.2018e-07
-1.10958e-09
3.43912e-10
1.3031e-09
6.43493e-07
-1.17907e-09
-1.82982e-15
1.34536e-09
6.55228e-07
-1.21674e-09
-3.43917e-10
1.34535e-09
6.55228e-07
-1.21674e-09
-6.41416e-10
1.30309e-09
6.43493e-07
-1.17906e-09
-8.48106e-10
1.22049e-09
6.2018e-07
-1.10958e-09
-9.43222e-10
1.0936e-09
5.85557e-07
-9.95707e-10
9.43216e-10
5.39864e-07
-8.90589e-10
-8.90588e-10
1.0936e-09
8.48099e-10
5.85557e-07
-9.95708e-10
1.01273e-09
1.01273e-09
6.27561e-07
7.77027e-10
1.1396e-09
6.59518e-07
4.20924e-10
1.22283e-09
6.81075e-07
-1.63179e-15
1.26508e-09
6.91933e-07
-4.20928e-10
1.26508e-09
6.91933e-07
-7.77036e-10
1.22283e-09
6.81075e-07
-1.01275e-09
1.13959e-09
6.59518e-07
-1.09362e-09
1.01274e-09
6.27561e-07
8.48091e-10
5.85557e-07
-9.95713e-10
1.22049e-09
6.41408e-10
6.2018e-07
-1.10958e-09
1.13959e-09
7.77028e-10
6.59518e-07
8.78837e-10
8.7884e-10
6.89507e-07
4.77492e-10
9.45973e-10
7.0975e-07
1.86244e-15
9.79804e-10
7.19947e-07
-4.77489e-10
9.79803e-10
7.19947e-07
-8.78836e-10
9.4597e-10
7.0975e-07
-1.13959e-09
8.78838e-10
6.89507e-07
-1.22049e-09
7.77031e-10
6.59518e-07
6.41404e-10
6.2018e-07
-1.10958e-09
1.30309e-09
3.4391e-10
6.43493e-07
-1.17907e-09
1.22282e-09
4.20924e-10
6.81075e-07
9.45968e-10
4.77494e-10
7.0975e-07
5.14966e-10
5.14969e-10
7.2911e-07
3.1353e-15
5.33788e-10
7.38864e-07
-5.1496e-10
5.33787e-10
7.38864e-07
-9.45963e-10
5.14966e-10
7.2911e-07
-1.22282e-09
4.77493e-10
7.0975e-07
-1.30309e-09
4.20924e-10
6.81075e-07
3.4391e-10
6.43493e-07
-1.17906e-09
1.34536e-09
-2.46303e-15
6.55228e-07
-1.21674e-09
1.26508e-09
1.34083e-15
6.91933e-07
9.79801e-10
3.31019e-15
7.19947e-07
5.33787e-10
4.02034e-15
7.38864e-07
3.09326e-15
3.89065e-15
7.48394e-07
-5.33781e-10
3.34985e-15
7.48394e-07
-9.79797e-10
2.99578e-15
7.38864e-07
-1.26507e-09
3.36662e-15
7.19947e-07
-1.34535e-09
1.43517e-15
6.91933e-07
-5.16457e-16
6.55228e-07
-1.21674e-09
1.34535e-09
-3.43916e-10
6.55228e-07
-1.21674e-09
1.26508e-09
-4.20921e-10
6.91933e-07
9.798e-10
-4.77488e-10
7.19947e-07
5.33786e-10
-5.14961e-10
7.38864e-07
2.83958e-15
-5.33781e-10
7.48394e-07
-5.33781e-10
-5.33781e-10
7.48394e-07
-9.79796e-10
-5.1496e-10
7.38864e-07
-1.26507e-09
-4.77486e-10
7.19947e-07
-1.34535e-09
-4.20923e-10
6.91933e-07
-3.43911e-10
6.55228e-07
-1.21674e-09
1.30309e-09
-6.41413e-10
6.43493e-07
-1.17906e-09
1.22282e-09
-7.77027e-10
6.81075e-07
9.45964e-10
-8.78836e-10
7.0975e-07
5.14963e-10
-9.45967e-10
7.2911e-07
1.88496e-15
-9.79799e-10
7.38864e-07
-5.1496e-10
-9.79798e-10
7.38864e-07
-9.45962e-10
-9.45964e-10
7.2911e-07
-1.22282e-09
-8.78832e-10
7.0975e-07
-1.30309e-09
-7.77029e-10
6.81075e-07
-6.41406e-10
6.43493e-07
-1.17906e-09
1.22048e-09
-8.48093e-10
6.2018e-07
-1.10958e-09
1.13959e-09
-1.01274e-09
6.59518e-07
8.78834e-10
-1.13959e-09
6.89507e-07
4.77491e-10
-1.22283e-09
7.0975e-07
1.64103e-15
-1.26508e-09
7.19947e-07
-4.77488e-10
-1.26507e-09
7.19947e-07
-8.78834e-10
-1.22282e-09
7.0975e-07
-1.13959e-09
-1.13959e-09
6.89507e-07
-1.22048e-09
-1.01274e-09
6.59518e-07
-8.48095e-10
6.2018e-07
-1.10958e-09
1.09361e-09
-9.43217e-10
5.85557e-07
-9.95713e-10
1.01274e-09
-1.0936e-09
6.27561e-07
7.77032e-10
-1.22049e-09
6.59518e-07
4.20926e-10
-1.30309e-09
6.81075e-07
1.06355e-15
-1.34535e-09
6.91933e-07
-4.20924e-10
-1.34535e-09
6.91933e-07
-7.77029e-10
-1.30309e-09
6.81075e-07
-1.01274e-09
-1.22048e-09
6.59518e-07
-1.09361e-09
-1.0936e-09
6.27561e-07
-9.43223e-10
5.85557e-07
-9.95707e-10
9.43216e-10
5.39864e-07
-8.90584e-10
-8.90588e-10
8.48097e-10
5.85557e-07
-9.95707e-10
6.4141e-10
6.2018e-07
-1.10958e-09
3.43911e-10
6.43493e-07
-1.17906e-09
6.61408e-17
6.55228e-07
-1.21674e-09
-3.43912e-10
6.55228e-07
-1.21674e-09
-6.41409e-10
6.43493e-07
-1.17906e-09
-8.48091e-10
6.2018e-07
-1.10958e-09
-9.43212e-10
5.85557e-07
-9.95705e-10
5.39864e-07
-8.90587e-10
-8.90588e-10
3.35024e-10
3.35034e-10
5.39819e-07
-3.12497e-10
-3.12494e-10
3.04473e-10
3.94026e-10
5.85547e-07
-3.53175e-10
2.3196e-10
4.44183e-10
6.20205e-07
-3.96561e-10
1.2495e-10
4.77503e-10
6.43546e-07
-4.23709e-10
-4.08149e-15
4.94615e-10
6.55296e-07
-4.3831e-10
-1.2496e-10
4.94615e-10
6.55296e-07
-4.38308e-10
-2.31973e-10
4.77501e-10
6.43546e-07
-4.23704e-10
-3.04478e-10
4.44162e-10
6.20205e-07
-3.96554e-10
-3.3502e-10
3.94005e-10
5.85547e-07
-3.53169e-10
3.35023e-10
5.39819e-07
-3.12486e-10
-3.12492e-10
3.94024e-10
3.04484e-10
5.85547e-07
-3.53175e-10
3.69445e-10
3.69443e-10
6.2761e-07
2.85909e-10
4.20563e-10
6.59625e-07
1.55691e-10
4.54829e-10
6.81228e-07
1.14109e-15
4.72373e-10
6.92111e-07
-1.55688e-10
4.72372e-10
6.92111e-07
-2.85905e-10
4.54825e-10
6.81228e-07
-3.69444e-10
4.20551e-10
6.59625e-07
-3.9403e-10
3.69433e-10
6.2761e-07
3.04466e-10
5.85547e-07
-3.53176e-10
4.44195e-10
2.31958e-10
6.20205e-07
-3.9656e-10
4.20569e-10
2.85912e-10
6.59625e-07
3.27503e-10
3.275e-10
6.89693e-07
1.78975e-10
3.55554e-10
7.09997e-07
4.42975e-15
3.6985e-10
7.20229e-07
-1.78965e-10
3.69848e-10
7.20229e-07
-3.2749e-10
3.55549e-10
7.09997e-07
-4.20555e-10
3.27491e-10
6.89693e-07
-4.44173e-10
2.859e-10
6.59625e-07
2.31957e-10
6.20205e-07
-3.96559e-10
4.77509e-10
1.24945e-10
6.43546e-07
-4.2371e-10
4.54833e-10
1.55693e-10
6.81228e-07
3.55555e-10
1.78975e-10
7.09997e-07
1.94768e-10
1.94769e-10
7.29431e-07
4.64711e-15
2.02801e-10
7.39225e-07
-1.94759e-10
2.02799e-10
7.39225e-07
-3.55545e-10
1.94764e-10
7.29431e-07
-4.54823e-10
1.78968e-10
7.09997e-07
-4.77499e-10
1.55685e-10
6.81228e-07
1.2495e-10
6.43546e-07
-4.23708e-10
4.94614e-10
-5.37867e-15
6.55296e-07
-4.38312e-10
4.72372e-10
3.26016e-15
6.92111e-07
3.69849e-10
5.07189e-15
7.20229e-07
2.02799e-10
5.33894e-15
7.39225e-07
3.80833e-15
4.56702e-15
7.488e-07
-2.02792e-10
3.15841e-15
7.488e-07
-3.69842e-10
1.26294e-15
7.39225e-07
-4.72367e-10
3.38644e-16
7.20229e-07
-4.94612e-10
-2.25917e-15
6.92111e-07
9.98496e-16
6.55296e-07
-4.38312e-10
4.94613e-10
-1.2496e-10
6.55296e-07
-4.38308e-10
4.7237e-10
-1.55686e-10
6.92111e-07
3.69846e-10
-1.78964e-10
7.20229e-07
2.02797e-10
-1.94758e-10
7.39225e-07
2.29004e-15
-2.02792e-10
7.488e-07
-2.02793e-10
-2.02793e-10
7.488e-07
-3.69843e-10
-1.94762e-10
7.39225e-07
-4.72368e-10
-1.78969e-10
7.20229e-07
-4.94612e-10
-1.5569e-10
6.92111e-07
-1.24947e-10
6.55296e-07
-4.38313e-10
4.77501e-10
-2.31972e-10
6.43546e-07
-4.23705e-10
4.54826e-10
-2.85903e-10
6.81228e-07
3.55548e-10
-3.27489e-10
7.09997e-07
1.94764e-10
-3.55545e-10
7.29431e-07
9.10363e-16
-3.69842e-10
7.39225e-07
-1.94762e-10
-3.69843e-10
7.39225e-07
-3.55548e-10
-3.55547e-10
7.29431e-07
-4.54824e-10
-3.27494e-10
7.09997e-07
-4.77499e-10
-2.85908e-10
6.81228e-07
-2.31954e-10
6.43546e-07
-4.23707e-10
4.44174e-10
-3.04482e-10
6.20205e-07
-3.96556e-10
4.20557e-10
-3.6944e-10
6.59625e-07
3.27495e-10
-4.20553e-10
6.89693e-07
1.78971e-10
-4.54822e-10
7.09997e-07
1.52427e-15
-4.72366e-10
7.20229e-07
-1.78967e-10
-4.72367e-10
7.20229e-07
-3.27492e-10
-4.54824e-10
7.09997e-07
-4.20556e-10
-4.20558e-10
6.89693e-07
-4.44176e-10
-3.69442e-10
6.59625e-07
-3.04469e-10
6.20205e-07
-3.96555e-10
3.94016e-10
-3.35025e-10
5.85547e-07
-3.53176e-10
3.69436e-10
-3.94017e-10
6.2761e-07
2.859e-10
-4.44169e-10
6.59625e-07
1.55686e-10
-4.77501e-10
6.81228e-07
-4.50407e-16
-4.94612e-10
6.92111e-07
-1.55687e-10
-4.94611e-10
6.92111e-07
-2.85904e-10
-4.775e-10
6.81228e-07
-3.69436e-10
-4.44183e-10
6.59625e-07
-3.94017e-10
-3.94024e-10
6.2761e-07
-3.3502e-10
5.85547e-07
-3.53168e-10
3.35017e-10
5.39819e-07
-3.12488e-10
-3.1249e-10
3.04466e-10
5.85547e-07
-3.53169e-10
2.31957e-10
6.20205e-07
-3.96557e-10
1.24948e-10
6.43546e-07
-4.23709e-10
2.08721e-15
6.55296e-07
-4.38314e-10
-1.24944e-10
6.55296e-07
-4.38314e-10
-2.31951e-10
6.43546e-07
-4.23709e-10
-3.04467e-10
6.20205e-07
-3.96559e-10
-3.35022e-10
5.85547e-07
-3.5317e-10
5.39819e-07
-3.12491e-10
-3.12487e-10
1.1927e-10
1.19268e-10
5.39801e-07
-1.10554e-10
-1.10556e-10
1.09082e-10
1.41608e-10
5.85541e-07
-1.25759e-10
8.34692e-11
1.60785e-10
6.20212e-07
-1.41877e-10
4.50959e-11
1.73733e-10
6.43563e-07
-1.5216e-10
-2.48098e-15
1.80412e-10
6.55319e-07
-1.57672e-10
-4.5102e-11
1.80411e-10
6.55319e-07
-1.5767e-10
-8.3478e-11
1.73733e-10
6.43563e-07
-1.52157e-10
-1.09094e-10
1.60791e-10
6.20212e-07
-1.41876e-10
-1.19274e-10
1.41601e-10
5.85541e-07
-1.25759e-10
1.19271e-10
5.39801e-07
-1.10557e-10
-1.10558e-10
1.41601e-10
1.09082e-10
5.85541e-07
-1.25756e-10
1.33863e-10
1.33864e-10
6.27626e-07
1.04215e-10
1.53729e-10
6.59662e-07
5.69616e-11
1.67273e-10
6.81282e-07
-1.2722e-15
1.74257e-10
6.92174e-07
-5.69643e-11
1.74256e-10
6.92174e-07
-1.04219e-10
1.67273e-10
6.81282e-07
-1.33866e-10
1.53731e-10
6.59662e-07
-1.41614e-10
1.33863e-10
6.27626e-07
1.09076e-10
5.85541e-07
-1.25759e-10
1.60782e-10
8.34677e-11
6.20212e-07
-1.41873e-10
1.53727e-10
1.04216e-10
6.59662e-07
1.20559e-10
1.20562e-10
6.89759e-07
6.61684e-11
1.31783e-10
7.10087e-07
6.30956e-16
1.37552e-10
7.20331e-07
-6.61675e-11
1.37551e-10
7.20331e-07
-1.20559e-10
1.31783e-10
7.10087e-07
-1.53729e-10
1.20563e-10
6.89759e-07
-1.60788e-10
1.04217e-10
6.59662e-07
8.34638e-11
6.20212e-07
-1.41878e-10
1.73729e-10
4.50948e-11
6.43563e-07
-1.52158e-10
1.6727e-10
5.69627e-11
6.81282e-07
1.31782e-10
6.61702e-11
7.10087e-07
7.25299e-11
7.25306e-11
7.2955e-07
1.84849e-15
7.57968e-11
7.3936e-07
-7.25268e-11
7.57965e-11
7.3936e-07
-1.31779e-10
7.25306e-11
7.2955e-07
-1.67269e-10
6.61709e-11
7.10087e-07
-1.73728e-10
5.69619e-11