/*--------------------------------*- C++ -*----------------------------------*\
| =========                 |                                                 |
| \\      /  F ield         | OpenFOAM: The Open Source CFD Toolbox           |
|  \\    /   O peration     | Version:  2412                                  |
|   \\  /    A nd           | Website:  www.openfoam.com                      |
|    \\/     M anipulation  |                                                 |
\*---------------------------------------------------------------------------*/
FoamFile
{
    version     2.0;
    format      ascii;
    arch        "LSB;label=32;scalar=64";
    class       surfaceScalarField;
    location    "0.202";
    object      phi;
}
// * * * * * * * * * * * * * * * * * * * * * * * * * * * * * * * * * * * * * //

dimensions      [0 3 -1 0 0 0 0];

oriented        oriented;

internalField   nonuniform List<scalar> 
43700
(
4.88882e-07
4.88874e-07
0.00070521
-5.80008e-07
-5.79999e-07
3.95305e-07
4.84353e-07
0.000764275
-5.8966e-07
2.7324e-07
4.78422e-07
0.000809356
-5.66375e-07
1.39032e-07
4.69995e-07
0.000839786
-5.53287e-07
9.21839e-12
4.64503e-07
0.000855114
-5.46736e-07
-1.39013e-07
4.64499e-07
0.000855114
-5.46735e-07
-2.7322e-07
4.69983e-07
0.000839786
-5.53284e-07
-3.95288e-07
4.78404e-07
0.000809356
-5.66369e-07
-4.88832e-07
4.84331e-07
0.000764275
-5.89654e-07
4.88873e-07
0.00070521
-5.7999e-07
-5.80026e-07
4.84364e-07
3.95289e-07
0.000764275
-5.89669e-07
3.77519e-07
3.77499e-07
0.000818978
2.59753e-07
3.72101e-07
0.00086076
1.32487e-07
3.66179e-07
0.000888976
7.34466e-12
3.62389e-07
0.000903193
-1.32473e-07
3.62383e-07
0.000903193
-2.5974e-07
3.6616e-07
0.000888976
-3.77506e-07
3.72067e-07
0.00086076
-4.8432e-07
3.77444e-07
0.000818978
3.95202e-07
0.000764275
-5.89607e-07
4.78432e-07
2.73226e-07
0.000809356
-5.66381e-07
3.72122e-07
2.59735e-07
0.00086076
2.55207e-07
2.55191e-07
0.000900044
1.29916e-07
2.51072e-07
0.000926584
1.77906e-12
2.48603e-07
0.000939961
-1.29913e-07
2.48599e-07
0.000939961
-2.55208e-07
2.51062e-07
0.000926584
-3.72127e-07
2.55175e-07
0.000900044
-4.7841e-07
2.5971e-07
0.00086076
2.73176e-07
0.000809356
-5.66328e-07
4.70004e-07
1.39016e-07
0.000839786
-5.53291e-07
3.66202e-07
1.32468e-07
0.000888976
2.51089e-07
1.29898e-07
0.000926584
1.27736e-07
1.27718e-07
0.000952001
-1.6393e-12
1.26466e-07
0.000964813
-1.2774e-07
1.26463e-07
0.000964813
-2.51096e-07
1.2771e-07
0.000952001
-3.66214e-07
1.29886e-07
0.000926584
-4.69997e-07
1.32451e-07
0.000888976
1.38987e-07
0.000839786
-5.53242e-07
4.64513e-07
-7.24216e-12
0.000855114
-5.46738e-07
3.62416e-07
-1.24588e-11
0.000903193
2.4862e-07
-1.59149e-11
0.000939961
1.26483e-07
-1.94607e-11
0.000964813
-4.74019e-12
-2.26408e-11
0.000977342
-1.26493e-07
-2.55832e-11
0.000977342
-2.48631e-07
-2.79935e-11
0.000964813
-3.6243e-07
-2.90247e-11
0.000939961
-4.64517e-07
-2.76104e-11
0.000903193
-2.77792e-11
0.000855114
-5.46694e-07
4.6451e-07
-1.39031e-07
0.000855114
-5.46735e-07
3.62414e-07
-1.32493e-07
0.000903193
2.48617e-07
-1.29931e-07
0.000939961
1.2648e-07
-1.27758e-07
0.000964813
-7.63502e-12
-1.26511e-07
0.000977342
-1.26496e-07
-1.26514e-07
0.000977342
-2.48633e-07
-1.27766e-07
0.000964813
-3.6243e-07
-1.29944e-07
0.000939961
-4.6452e-07
-1.32508e-07
0.000903193
-1.39047e-07
0.000855114
-5.46699e-07
4.69995e-07
-2.7324e-07
0.000839786
-5.53282e-07
3.66195e-07
-2.5976e-07
0.000888976
2.5108e-07
-2.55224e-07
0.000926584
1.27727e-07
-2.51113e-07
0.000952001
-1.01185e-11
-2.4865e-07
0.000964813
-1.27748e-07
-2.48652e-07
0.000964813
-2.51101e-07
-2.51119e-07
0.000952001
-3.66215e-07
-2.55236e-07
0.000926584
-4.7001e-07
-2.59776e-07
0.000888976
-2.73255e-07
0.000839786
-5.53254e-07
4.78417e-07
-3.9531e-07
0.000809356
-5.66364e-07
3.72109e-07
-3.77529e-07
0.00086076
2.55193e-07
-3.72142e-07
0.000900044
1.29901e-07
-3.66229e-07
0.000926584
-1.22396e-11
-3.62447e-07
0.000939961
-1.29926e-07
-3.62449e-07
0.000939961
-2.55218e-07
-3.66234e-07
0.000926584
-3.72134e-07
-3.72152e-07
0.000900044
-4.78437e-07
-3.77544e-07
0.00086076
-3.95325e-07
0.000809356
-5.66345e-07
4.84336e-07
-4.88854e-07
0.000764275
-5.89641e-07
3.77497e-07
-4.84363e-07
0.000818978
2.5973e-07
-4.78442e-07
0.00086076
1.32465e-07
-4.70019e-07
0.000888976
-1.33601e-11
-4.64532e-07
0.000903193
-1.32493e-07
-4.64533e-07
0.000903193
-2.5976e-07
-4.70023e-07
0.000888976
-3.77528e-07
-4.7845e-07
0.00086076
-4.84365e-07
-4.84376e-07
0.000818978
-4.88875e-07
0.000764275
-5.89633e-07
4.88826e-07
0.00070521
-5.79998e-07
-5.79976e-07
3.95283e-07
0.000764275
-5.89661e-07
2.73217e-07
0.000809356
-5.66379e-07
1.39009e-07
0.000839786
-5.53294e-07
-1.24251e-11
0.000855114
-5.46744e-07
-1.39035e-07
0.000855114
-5.46744e-07
-2.73245e-07
0.000839786
-5.53293e-07
-3.95315e-07
0.000809356
-5.66377e-07
-4.88869e-07
0.000764275
-5.89658e-07
0.00070521
-5.79975e-07
-5.79994e-07
1.37204e-06
1.37202e-06
0.000705726
-1.63005e-06
-1.63003e-06
1.08509e-06
1.34811e-06
0.000764832
-1.6183e-06
7.47763e-07
1.33722e-06
0.000809946
-1.59037e-06
3.81006e-07
1.32401e-06
0.000840399
-1.57026e-06
1.94349e-11
1.31528e-06
0.000855739
-1.55866e-06
-3.80967e-07
1.31528e-06
0.000855739
-1.55866e-06
-7.47722e-07
1.324e-06
0.000840399
-1.57025e-06
-1.08505e-06
1.3372e-06
0.000809946
-1.59034e-06
-1.37197e-06
1.34808e-06
0.000764832
-1.61827e-06
1.37192e-06
0.000705726
-1.62997e-06
-1.62997e-06
1.34814e-06
1.08507e-06
0.000764832
-1.61833e-06
1.05019e-06
1.05017e-06
0.000819574
7.21124e-07
1.0396e-06
0.000861386
3.67301e-07
1.03035e-06
0.000889623
1.88158e-11
1.0246e-06
0.000903851
-3.67262e-07
1.0246e-06
0.000903851
-7.21082e-07
1.03034e-06
0.000889623
-1.05015e-06
1.03959e-06
0.000861386
-1.3481e-06
1.05016e-06
0.000819574
1.08505e-06
0.000764832
-1.61829e-06
1.33725e-06
7.47741e-07
0.000809946
-1.5904e-06
1.03962e-06
7.21099e-07
0.000861386
7.11803e-07
7.11775e-07
0.000900699
3.61854e-07
7.05102e-07
0.000927259
1.91559e-11
7.01389e-07
0.000940646
-3.61814e-07
7.01384e-07
0.000940646
-7.11757e-07
7.05088e-07
0.000927259
-1.03957e-06
7.1175e-07
0.000900699
-1.33719e-06
7.21061e-07
0.000861386
7.47699e-07
0.000809946
-1.59036e-06
1.32404e-06
3.80982e-07
0.000840399
-1.5703e-06
1.03037e-06
3.67273e-07
0.000889623
7.0513e-07
3.61821e-07
0.000927259
3.58186e-07
3.58152e-07
0.000952695
1.5157e-11
3.56239e-07
0.000965516
-3.58154e-07
3.56234e-07
0.000965516
-7.05092e-07
3.58135e-07
0.000952695
-1.03032e-06
3.61791e-07
0.000927259
-1.32398e-06
3.67227e-07
0.000889623
3.80931e-07
0.000840399
-1.57026e-06
1.31531e-06
-7.17873e-12
0.000855739
-1.5587e-06
1.02462e-06
-1.37098e-11
0.000903851
7.01415e-07
-2.0701e-11
0.000940646
3.56273e-07
-2.6944e-11
0.000965516
9.61014e-12
-3.30434e-11
0.000978054
-3.56253e-07
-3.92e-11
0.000978054
-7.01392e-07
-4.57427e-11
0.000965516
-1.02458e-06
-5.33667e-11
0.000940646
-1.31526e-06
-6.18387e-11
0.000903851
-6.06479e-11
0.000855739
-1.55867e-06
1.31531e-06
-3.80996e-07
0.000855739
-1.5587e-06
1.02461e-06
-3.673e-07
0.000903851
7.01409e-07
-3.61863e-07
0.000940646
3.56267e-07
-3.58206e-07
0.000965516
3.02597e-12
-3.56305e-07
0.000978054
-3.5626e-07
-3.56311e-07
0.000978054
-7.01401e-07
-3.58226e-07
0.000965516
-1.0246e-06
-3.61896e-07
0.000940646
-1.31527e-06
-3.67349e-07
0.000903851
-3.8105e-07
0.000855739
-1.55868e-06
1.32402e-06
-7.47752e-07
0.000840399
-1.57029e-06
1.03035e-06
-7.21126e-07
0.000889623
7.05112e-07
-7.11818e-07
0.000927259
3.58168e-07
-7.05157e-07
0.000952695
-3.93859e-12
-7.01455e-07
0.000965516
-3.58176e-07
-7.01461e-07
0.000965516
-7.05119e-07
-7.05175e-07
0.000952695
-1.03035e-06
-7.1185e-07
0.000927259
-1.32401e-06
-7.21174e-07
0.000889623
-7.47807e-07
0.000840399
-1.57028e-06
1.33722e-06
-1.08508e-06
0.000809946
-1.59038e-06
1.03959e-06
-1.0502e-06
0.000861386
7.11774e-07
-1.03964e-06
0.000900699
3.61826e-07
-1.0304e-06
0.000927259
-1.07347e-11
-1.02466e-06
0.000940646
-3.61848e-07
-1.02466e-06
0.000940646
-7.11797e-07
-1.03041e-06
0.000927259
-1.03962e-06
-1.03967e-06
0.000900699
-1.33723e-06
-1.05024e-06
0.000861386
-1.08513e-06
0.000809946
-1.59039e-06
1.3481e-06
-1.37201e-06
0.000764832
-1.6183e-06
1.05015e-06
-1.34814e-06
0.000819574
7.21086e-07
-1.33726e-06
0.000861386
3.67266e-07
-1.32406e-06
0.000889623
-1.6047e-11
-1.31535e-06
0.000903851
-3.67299e-07
-1.31535e-06
0.000903851
-7.21123e-07
-1.32408e-06
0.000889623
-1.05019e-06
-1.33729e-06
0.000861386
-1.34813e-06
-1.34818e-06
0.000819574
-1.37207e-06
0.000764832
-1.61833e-06
1.37197e-06
0.000705726
-1.63005e-06
-1.63e-06
1.08504e-06
0.000764832
-1.61834e-06
7.47718e-07
0.000809946
-1.59042e-06
3.80966e-07
0.000840399
-1.57033e-06
-1.87109e-11
0.000855739
-1.55874e-06
-3.81005e-07
0.000855739
-1.55874e-06
-7.4776e-07
0.000840399
-1.57034e-06
-1.08509e-06
0.000809946
-1.59044e-06
-1.37202e-06
0.000764832
-1.61837e-06
0.000705726
-1.63005e-06
-1.6301e-06
2.24849e-06
2.24846e-06
0.000706584
-2.67739e-06
-2.67736e-06
1.77055e-06
2.23185e-06
0.000765761
-2.68358e-06
1.21984e-06
2.22749e-06
0.000810931
-2.66127e-06
6.21485e-07
2.21905e-06
0.00084142
-2.64217e-06
7.71656e-12
2.21261e-06
0.000856779
-2.63123e-06
-6.21468e-07
2.21261e-06
0.000856779
-2.63123e-06
-1.21982e-06
2.21904e-06
0.00084142
-2.64217e-06
-1.77053e-06
2.22748e-06
0.000810931
-2.66127e-06
-2.24842e-06
2.23183e-06
0.000765761
-2.68358e-06
2.24843e-06
0.000706584
-2.67733e-06
-2.67737e-06
2.23188e-06
1.77052e-06
0.000765761
-2.68361e-06
1.73364e-06
1.73361e-06
0.000820571
1.18782e-06
1.726e-06
0.000862433
6.04137e-07
1.72113e-06
0.000890705
5.55742e-12
1.7179e-06
0.00090495
-6.04125e-07
1.7179e-06
0.00090495
-1.1878e-06
1.72112e-06
0.000890705
-1.73362e-06
1.72597e-06
0.000862433
-2.23181e-06
1.73356e-06
0.000820571
1.77044e-06
0.000765761
-2.68352e-06
2.22753e-06
1.21981e-06
0.000810931
-2.6613e-06
1.72604e-06
1.18779e-06
0.000862433
1.17849e-06
1.17846e-06
0.000901794
5.97989e-07
1.17436e-06
0.000928387
3.32417e-13
1.17243e-06
0.000941789
-5.97988e-07
1.17242e-06
0.000941789
-1.17848e-06
1.17435e-06
0.000928387
-1.72603e-06
1.17844e-06
0.000901794
-2.22748e-06
1.18775e-06
0.000862433
1.21975e-06
0.000810931
-2.66123e-06
2.21908e-06
6.21459e-07
0.00084142
-2.6422e-06
1.72117e-06
6.04105e-07
0.000890705
1.17439e-06
5.97956e-07
0.000928387
5.9537e-07
5.95336e-07
0.000953853
-4.07455e-12
5.94276e-07
0.00096669
-5.95377e-07
5.94271e-07
0.00096669
-1.1744e-06
5.95321e-07
0.000953853
-1.72117e-06
5.97933e-07
0.000928387
-2.21906e-06
6.04072e-07
0.000890705
6.21409e-07
0.00084142
-2.64214e-06
2.21264e-06
-1.98228e-11
0.000856779
-2.63126e-06
1.71794e-06
-2.74866e-11
0.00090495
1.17246e-06
-3.42095e-11
0.000941789
5.9431e-07
-4.0477e-11
0.00096669
-9.24701e-12
-4.62682e-11
0.000979243
-5.94327e-07
-5.13919e-11
0.000979243
-1.17247e-06
-5.60146e-11
0.00096669
-1.71795e-06
-6.02746e-11
0.000941789
-2.21264e-06
-6.33285e-11
0.00090495
-6.56148e-11
0.000856779
-2.63122e-06
2.21264e-06
-6.21498e-07
0.000856779
-2.63125e-06
1.71793e-06
-6.0416e-07
0.00090495
1.17245e-06
-5.98025e-07
0.000941789
5.94305e-07
-5.95417e-07
0.00096669
-1.45731e-11
-5.94369e-07
0.000979243
-5.94333e-07
-5.94374e-07
0.000979243
-1.17248e-06
-5.95433e-07
0.00096669
-1.71796e-06
-5.98053e-07
0.000941789
-2.21265e-06
-6.04199e-07
0.00090495
-6.21544e-07
0.000856779
-2.63123e-06
2.21906e-06
-1.21985e-06
0.00084142
-2.64218e-06
1.72116e-06
-1.18784e-06
0.000890705
1.17438e-06
-1.17853e-06
0.000928387
5.95354e-07
-1.17444e-06
0.000953853
-1.97198e-11
-1.17252e-06
0.00096669
-5.95393e-07
-1.17252e-06
0.00096669
-1.17441e-06
-1.17446e-06
0.000953853
-1.72119e-06
-1.17855e-06
0.000928387
-2.21908e-06
-1.18788e-06
0.000890705
-1.2199e-06
0.00084142
-2.64217e-06
2.2275e-06
-1.77056e-06
0.000810931
-2.66128e-06
1.72601e-06
-1.73367e-06
0.000862433
1.17846e-06
-1.72608e-06
0.000901794
5.97964e-07
-1.72122e-06
0.000928387
-2.4786e-11
-1.718e-06
0.000941789
-5.98014e-07
-1.71801e-06
0.000941789
-1.17851e-06
-1.72124e-06
0.000928387
-1.72606e-06
-1.7261e-06
0.000901794
-2.22753e-06
-1.73371e-06
0.000862433
-1.77061e-06
0.000810931
-2.66128e-06
2.23183e-06
-2.24846e-06
0.000765761
-2.68357e-06
1.73361e-06
-2.23189e-06
0.000820571
1.18778e-06
-2.22755e-06
0.000862433
6.04102e-07
-2.21911e-06
0.000890705
-2.93564e-11
-2.21269e-06
0.00090495
-6.04161e-07
-2.21269e-06
0.00090495
-1.18784e-06
-2.21912e-06
0.000890705
-1.73367e-06
-2.22757e-06
0.000862433
-2.23189e-06
-2.23192e-06
0.000820571
-2.24852e-06
0.000765761
-2.68359e-06
2.24841e-06
0.000706584
-2.67738e-06
-2.67733e-06
1.77051e-06
0.000765761
-2.68362e-06
1.21979e-06
0.000810931
-2.66132e-06
6.21445e-07
0.00084142
-2.64222e-06
-3.18313e-11
0.000856779
-2.63129e-06
-6.21509e-07
0.000856779
-2.6313e-06
-1.21986e-06
0.00084142
-2.64223e-06
-1.77058e-06
0.000810931
-2.66133e-06
-2.24848e-06
0.000765761
-2.68364e-06
0.000706584
-2.67737e-06
-2.67742e-06
2.94931e-06
2.94929e-06
0.000707716
-3.51558e-06
-3.51556e-06
2.31822e-06
2.94466e-06
0.00076699
-3.5418e-06
1.59637e-06
2.94322e-06
0.000812231
-3.52213e-06
8.13031e-07
2.93744e-06
0.00084277
-3.50377e-06
-3.28863e-12
2.93264e-06
0.000858153
-3.4939e-06
-8.13037e-07
2.93264e-06
0.000858153
-3.4939e-06
-1.59637e-06
2.93743e-06
0.00084277
-3.50376e-06
-2.31822e-06
2.94319e-06
0.000812231
-3.5221e-06
-2.9493e-06
2.94462e-06
0.00076699
-3.54176e-06
2.94921e-06
0.000707716
-3.51557e-06
-3.5155e-06
2.94468e-06
2.3182e-06
0.00076699
-3.54183e-06
2.28608e-06
2.28606e-06
0.000821888
1.56493e-06
2.27974e-06
0.000863818
7.95355e-07
2.27695e-06
0.000892135
-1.11442e-11
2.27507e-06
0.000906403
-7.95376e-07
2.27507e-06
0.000906403
-1.56495e-06
2.27694e-06
0.000892135
-2.2861e-06
2.27972e-06
0.000863818
-2.9447e-06
2.28604e-06
0.000821888
2.31817e-06
0.00076699
-3.54185e-06
2.94324e-06
1.59635e-06
0.000812231
-3.52216e-06
2.27976e-06
1.56492e-06
0.000863818
1.5557e-06
1.55568e-06
0.000903242
7.88988e-07
1.55278e-06
0.000929878
-1.78356e-11
1.55169e-06
0.000943301
-7.89022e-07
1.55168e-06
0.000943301
-1.55573e-06
1.55277e-06
0.000929878
-2.27979e-06
1.55566e-06
0.000903242
-2.94327e-06
1.56489e-06
0.000863818
1.59632e-06
0.000812231
-3.52219e-06
2.93747e-06
8.13015e-07
0.00084277
-3.50381e-06
2.27697e-06
7.95341e-07
0.000892135
1.5528e-06
7.88975e-07
0.000929878
7.86894e-07
7.86881e-07
0.000955384
-2.31446e-11
7.86214e-07
0.000968242
-7.8694e-07
7.86211e-07
0.000968242
-1.55284e-06
7.86872e-07
0.000955384
-2.27701e-06
7.88957e-07
0.000929878
-2.9375e-06
7.95314e-07
0.000892135
8.12983e-07
0.00084277
-3.50385e-06
2.93267e-06
-1.92461e-11
0.000858153
-3.49394e-06
2.27509e-06
-2.31448e-11
0.000906403
1.5517e-06
-2.86611e-11
0.000943301
7.86227e-07
-3.36019e-11
0.000968242
-2.68844e-11
-3.76707e-11
0.000980815
-7.8628e-07
-4.06082e-11
0.000980815
-1.55176e-06
-4.27344e-11
0.000968242
-2.27514e-06
-4.51856e-11
0.000943301
-2.93271e-06
-4.87411e-11
0.000906403
-5.08879e-11
0.000858153
-3.49397e-06
2.93267e-06
-8.13052e-07
0.000858153
-3.49393e-06
2.27508e-06
-7.95387e-07
0.000906403
1.5517e-06
-7.89032e-07
0.000943301
7.86224e-07
-7.86949e-07
0.000968242
-2.95456e-11
-7.8629e-07
0.000980815
-7.86283e-07
-7.86293e-07
0.000980815
-1.55176e-06
-7.86958e-07
0.000968242
-2.27514e-06
-7.89049e-07
0.000943301
-2.9327e-06
-7.95413e-07
0.000906403
-8.13085e-07
0.000858153
-3.49397e-06
2.93746e-06
-1.59639e-06
0.00084277
-3.5038e-06
2.27696e-06
-1.56496e-06
0.000892135
1.55279e-06
-1.55574e-06
0.000929878
7.86885e-07
-1.55285e-06
0.000955384
-3.16933e-11
-1.55176e-06
0.000968242
-7.86948e-07
-1.55177e-06
0.000968242
-1.55285e-06
-1.55286e-06
0.000955384
-2.27702e-06
-1.55576e-06
0.000929878
-2.9375e-06
-1.56499e-06
0.000892135
-1.59642e-06
0.00084277
-3.50383e-06
2.94323e-06
-2.31823e-06
0.000812231
-3.52214e-06
2.27974e-06
-2.28611e-06
0.000863818
1.55568e-06
-2.2798e-06
0.000903242
7.88971e-07
-2.27702e-06
0.000929878
-3.41589e-11
-2.27515e-06
0.000943301
-7.89039e-07
-2.27515e-06
0.000943301
-1.55575e-06
-2.27703e-06
0.000929878
-2.2798e-06
-2.27981e-06
0.000903242
-2.94327e-06
-2.28614e-06
0.000863818
-2.31827e-06
0.000812231
-3.52218e-06
2.94465e-06
-2.9493e-06
0.00076699
-3.54181e-06
2.28605e-06
-2.9447e-06
0.000821888
1.56491e-06
-2.94327e-06
0.000863818
7.95328e-07
-2.93751e-06
0.000892135
-3.72517e-11
-2.93272e-06
0.000906403
-7.95402e-07
-2.93272e-06
0.000906403
-1.56498e-06
-2.93752e-06
0.000892135
-2.28612e-06
-2.94329e-06
0.000863818
-2.94471e-06
-2.94472e-06
0.000821888
-2.94935e-06
0.00076699
-3.54185e-06
2.94925e-06
0.000707716
-3.51559e-06
-3.51555e-06
2.31818e-06
0.00076699
-3.54184e-06
1.59633e-06
0.000812231
-3.52218e-06
8.12994e-07
0.00084277
-3.50384e-06
-3.99449e-11
0.000858153
-3.49397e-06
-8.13073e-07
0.000858153
-3.49397e-06
-1.59641e-06
0.00084277
-3.50384e-06
-2.31826e-06
0.000812231
-3.52219e-06
-2.94933e-06
0.00076699
-3.54187e-06
0.000707716
-3.51561e-06
-3.51563e-06
3.46218e-06
3.46218e-06
0.000709051
-4.12951e-06
-4.1295e-06
2.72023e-06
3.47309e-06
0.000768437
-4.17857e-06
1.87222e-06
3.47092e-06
0.000813764
-4.15603e-06
9.53069e-07
3.46368e-06
0.000844361
-4.13548e-06
-5.03758e-12
3.45803e-06
0.000859773
-4.12503e-06
-9.53078e-07
3.45803e-06
0.000859773
-4.12503e-06
-1.87223e-06
3.46367e-06
0.000844361
-4.13547e-06
-2.72023e-06
3.4709e-06
0.000813764
-4.15601e-06
-3.46215e-06
3.47305e-06
0.000768437
-4.17854e-06
3.46211e-06
0.000709051
-4.1295e-06
-4.12945e-06
3.47309e-06
2.72022e-06
0.000768437
-4.17858e-06
2.69689e-06
2.69689e-06
0.00082344
1.84552e-06
2.69008e-06
0.00086545
9.37593e-07
2.68557e-06
0.000893821
-1.25122e-11
2.68251e-06
0.000908116
-9.37617e-07
2.6825e-06
0.000908116
-1.84555e-06
2.68557e-06
0.000893821
-2.69691e-06
2.69006e-06
0.00086545
-3.47309e-06
2.69685e-06
0.00082344
2.72018e-06
0.000768437
-4.17857e-06
3.47092e-06
1.87222e-06
0.000813764
-4.15603e-06
2.69008e-06
1.84553e-06
0.00086545
1.83634e-06
1.83635e-06
0.00090495
9.31419e-07
1.83227e-06
0.000931636
-1.99742e-11
1.83018e-06
0.000945085
-9.31459e-07
1.83018e-06
0.000945085
-1.83638e-06
1.83226e-06
0.000931636
-2.69012e-06
1.83634e-06
0.00090495
-3.47094e-06
1.8455e-06
0.00086545
1.87218e-06
0.000813764
-4.15605e-06
3.46368e-06
9.53071e-07
0.000844361
-4.13548e-06
2.68557e-06
9.376e-07
0.000893821
1.83226e-06
9.3143e-07
0.000931636
9.28816e-07
9.28829e-07
0.000957191
-2.45133e-11
9.27646e-07
0.000970073
-9.28866e-07
9.27644e-07
0.000970073
-1.83231e-06
9.28823e-07
0.000957191
-2.68562e-06
9.31419e-07
0.000931636
-3.46371e-06
9.37581e-07
0.000893821
9.53042e-07
0.000844361
-4.1355e-06
3.45803e-06
-1.5723e-12
0.000859773
-4.12503e-06
2.6825e-06
-2.90253e-12
0.000908116
1.83017e-06
-6.33095e-12
0.000945085
9.27633e-07
-9.60388e-12
0.000970073
-2.6985e-11
-1.21366e-11
0.000982671
-9.27687e-07
-1.37572e-11
0.000982671
-1.83022e-06
-1.49005e-11
0.000970073
-2.68256e-06
-1.67688e-11
0.000945085
-3.45807e-06
-2.05936e-11
0.000908116
-2.70779e-11
0.000859773
-4.12505e-06
3.45803e-06
-9.53074e-07
0.000859773
-4.12503e-06
2.6825e-06
-9.37606e-07
0.000908116
1.83017e-06
-9.31443e-07
0.000945085
9.27632e-07
-9.28848e-07
0.000970073
-2.81217e-11
-9.27671e-07
0.000982671
-9.27688e-07
-9.27673e-07
0.000982671
-1.83022e-06
-9.28854e-07
0.000970073
-2.68255e-06
-9.31454e-07
0.000945085
-3.45807e-06
-9.37624e-07
0.000908116
-9.53098e-07
0.000859773
-4.12505e-06
3.46367e-06
-1.87222e-06
0.000844361
-4.13547e-06
2.68556e-06
-1.84553e-06
0.000893821
1.83226e-06
-1.83636e-06
0.000931636
9.28811e-07
-1.83229e-06
0.000957191
-2.86634e-11
-1.8302e-06
0.000970073
-9.28868e-07
-1.83021e-06
0.000970073
-1.83231e-06
-1.8323e-06
0.000957191
-2.68562e-06
-1.83637e-06
0.000931636
-3.4637e-06
-1.84555e-06
0.000893821
-1.87225e-06
0.000844361
-4.13549e-06
3.4709e-06
-2.72023e-06
0.000813764
-4.15601e-06
2.69006e-06
-2.69689e-06
0.00086545
1.83633e-06
-2.6901e-06
0.00090495
9.31407e-07
-2.6856e-06
0.000931636
-2.97347e-11
-2.68254e-06
0.000945085
-9.31466e-07
-2.68254e-06
0.000945085
-1.83638e-06
-2.68561e-06
0.000931636
-2.69012e-06
-2.69011e-06
0.00090495
-3.47094e-06
-2.69692e-06
0.00086545
-2.72025e-06
0.000813764
-4.15604e-06
3.47306e-06
-3.46215e-06
0.000768437
-4.17854e-06
2.69686e-06
-3.47308e-06
0.00082344
1.8455e-06
-3.47092e-06
0.00086545
9.37571e-07
-3.46369e-06
0.000893821
-3.20715e-11
-3.45805e-06
0.000908116
-9.37634e-07
-3.45805e-06
0.000908116
-1.84556e-06
-3.4637e-06
0.000893821
-2.69692e-06
-3.47094e-06
0.00086545
-3.47311e-06
-3.4731e-06
0.00082344
-3.46218e-06
0.000768437
-4.17857e-06
3.46212e-06
0.000709051
-4.12949e-06
-4.12946e-06
2.72019e-06
0.000768437
-4.17856e-06
1.87218e-06
0.000813764
-4.15603e-06
9.53036e-07
0.000844361
-4.13549e-06
-3.47765e-11
0.000859773
-4.12504e-06
-9.53105e-07
0.000859773
-4.12504e-06
-1.87225e-06
0.000844361
-4.13549e-06
-2.72026e-06
0.000813764
-4.15604e-06
-3.46218e-06
0.000768437
-4.17858e-06
0.000709051
-4.1295e-06
-4.12951e-06
3.86341e-06
3.86341e-06
0.000710544
-4.60993e-06
-4.60993e-06
3.03558e-06
3.89056e-06
0.000770056
-4.68155e-06
2.08804e-06
3.88484e-06
0.000815479
-4.65215e-06
1.06239e-06
3.87236e-06
0.00084614
-4.62639e-06
3.91757e-12
3.86336e-06
0.000861585
-4.61332e-06
-1.06238e-06
3.86336e-06
0.000861585
-4.61332e-06
-2.08803e-06
3.87236e-06
0.00084614
-4.62638e-06
-3.03556e-06
3.88482e-06
0.000815479
-4.65213e-06
-3.86337e-06
3.89053e-06
0.000770056
-4.68152e-06
3.86334e-06
0.000710544
-4.60991e-06
-4.60988e-06
3.89056e-06
3.03558e-06
0.000770056
-4.68155e-06
3.02256e-06
3.02256e-06
0.000825176
2.06819e-06
3.01376e-06
0.000867276
1.0505e-06
3.00423e-06
0.000895706
-1.95471e-12
2.99761e-06
0.000910032
-1.0505e-06
2.99761e-06
0.000910032
-2.06819e-06
3.00422e-06
0.000895706
-3.02255e-06
3.01375e-06
0.000867276
-3.89055e-06
3.02254e-06
0.000825176
3.03554e-06
0.000770056
-4.68154e-06
3.88483e-06
2.08805e-06
0.000815479
-4.65214e-06
3.01375e-06
2.06821e-06
0.000867276
2.0588e-06
2.05881e-06
0.00090686
1.04467e-06
2.05144e-06
0.000933603
-7.63146e-12
2.04667e-06
0.000947081
-1.04469e-06
2.04667e-06
0.000947081
-2.05881e-06
2.05144e-06
0.000933603
-3.01376e-06
2.0588e-06
0.00090686
-3.88483e-06
2.06818e-06
0.000867276
2.08802e-06
0.000815479
-4.65215e-06
3.87235e-06
1.0624e-06
0.00084614
-4.62638e-06
3.00421e-06
1.05051e-06
0.000895706
2.05143e-06
1.04469e-06
0.000933603
1.04061e-06
1.04063e-06
0.000959213
-1.15251e-11
1.03809e-06
0.000972122
-1.04063e-06
1.03809e-06
0.000972122
-2.05145e-06
1.04062e-06
0.000959213
-3.00424e-06
1.04468e-06
0.000933603
-3.87236e-06
1.05049e-06
0.000895706
1.06237e-06
0.00084614
-4.62639e-06
3.86335e-06
1.60067e-11
0.000861585
-4.61331e-06
2.99759e-06
1.60528e-11
0.000910032
2.04665e-06
1.33999e-11
0.000947081
1.03807e-06
1.08032e-11
0.000972122
-1.38944e-11
8.64408e-12
0.000984747
-1.0381e-06
6.96285e-12
0.000984747
-2.04668e-06
5.31136e-12
0.000972122
-2.99762e-06
2.37714e-12
0.000947081
-3.86336e-06
-3.19675e-12
0.000910032
-1.06366e-11
0.000861585
-4.61332e-06
3.86334e-06
-1.06236e-06
0.000861585
-4.61331e-06
2.99759e-06
-1.05048e-06
0.000910032
2.04665e-06
-1.04467e-06
0.000947081
1.03807e-06
-1.04061e-06
0.000972122
-1.52601e-11
-1.03808e-06
0.000984747
-1.0381e-06
-1.03808e-06
0.000984747
-2.04668e-06
-1.04061e-06
0.000972122
-2.99762e-06
-1.04468e-06
0.000947081
-3.86336e-06
-1.0505e-06
0.000910032
-1.06239e-06
0.000861585
-4.61331e-06
3.87234e-06
-2.08802e-06
0.00084614
-4.62637e-06
3.0042e-06
-2.06817e-06
0.000895706
2.05142e-06
-2.05879e-06
0.000933603
1.0406e-06
-2.05143e-06
0.000959213
-1.61567e-11
-2.04666e-06
0.000972122
-1.04063e-06
-2.04666e-06
0.000972122
-2.05145e-06
-2.05143e-06
0.000959213
-3.00423e-06
-2.0588e-06
0.000933603
-3.87236e-06
-2.06819e-06
0.000895706
-2.08804e-06
0.00084614
-4.62638e-06
3.88481e-06
-3.03555e-06
0.000815479
-4.65212e-06
3.01373e-06
-3.02253e-06
0.000867276
2.05878e-06
-3.01374e-06
0.00090686
1.04466e-06
-3.00421e-06
0.000933603
-1.75844e-11
-2.9976e-06
0.000947081
-1.0447e-06
-2.9976e-06
0.000947081
-2.05882e-06
-3.00422e-06
0.000933603
-3.01376e-06
-3.01375e-06
0.00090686
-3.88483e-06
-3.02256e-06
0.000867276
-3.03558e-06
0.000815479
-4.65213e-06
3.89052e-06
-3.86336e-06
0.000770056
-4.68151e-06
3.02252e-06
-3.89053e-06
0.000825176
2.06816e-06
-3.88481e-06
0.000867276
1.05047e-06
-3.87234e-06
0.000895706
-2.02257e-11
-3.86335e-06
0.000910032
-1.05051e-06
-3.86335e-06
0.000910032
-2.06821e-06
-3.87235e-06
0.000895706
-3.02256e-06
-3.88482e-06
0.000867276
-3.89055e-06
-3.89054e-06
0.000825176
-3.86339e-06
0.000770056
-4.68153e-06
3.86334e-06
0.000710544
-4.60989e-06
-4.60988e-06
3.03553e-06
0.000770056
-4.68152e-06
2.08801e-06
0.000815479
-4.65212e-06
1.06235e-06
0.00084614
-4.62637e-06
-2.27607e-11
0.000861585
-4.6133e-06
-1.0624e-06
0.000861585
-4.6133e-06
-2.08805e-06
0.00084614
-4.62637e-06
-3.03558e-06
0.000815479
-4.65213e-06
-3.86339e-06
0.000770056
-4.68153e-06
0.000710544
-4.60991e-06
-4.60991e-06
4.18619e-06
4.18619e-06
0.000712164
-4.99628e-06
-4.99627e-06
3.28909e-06
4.22848e-06
0.000771812
-5.08793e-06
2.26107e-06
4.21785e-06
0.00081734
-5.05054e-06
1.14983e-06
4.19824e-06
0.000848071
-5.01809e-06
1.74885e-11
4.18454e-06
0.000863552
-5.00125e-06
-1.1498e-06
4.18454e-06
0.000863552
-5.00125e-06
-2.26103e-06
4.19823e-06
0.000848071
-5.01808e-06
-3.28905e-06
4.21783e-06
0.00081734
-5.05052e-06
-4.18613e-06
4.22844e-06
0.000771812
-5.0879e-06
4.18612e-06
0.000712164
-4.99623e-06
-4.99622e-06
4.22847e-06
3.2891e-06
0.000771812
-5.08793e-06
3.28673e-06
3.28674e-06
0.000827059
2.24889e-06
3.2752e-06
0.000869256
1.14211e-06
3.259e-06
0.000897752
1.23858e-11
3.24759e-06
0.000912111
-1.14209e-06
3.24759e-06
0.000912111
-2.24887e-06
3.25899e-06
0.000897752
-3.2867e-06
3.27518e-06
0.000869256
-4.22843e-06
3.2867e-06
0.000827059
3.28905e-06
0.000771812
-5.08789e-06
4.21784e-06
2.26107e-06
0.00081734
-5.05054e-06
3.27519e-06
2.2489e-06
0.000869256
2.23914e-06
2.23915e-06
0.000908932
1.13671e-06
2.22744e-06
0.000935736
7.43413e-12
2.21911e-06
0.000949246
-1.1367e-06
2.21911e-06
0.000949246
-2.23912e-06
2.22743e-06
0.000935736
-3.27517e-06
2.23914e-06
0.000908932
-4.21781e-06
2.24888e-06
0.000869256
2.26103e-06
0.00081734
-5.05051e-06
4.19824e-06
1.14984e-06
0.000848071
-5.01808e-06
3.25899e-06
1.14212e-06
0.000897752
2.22743e-06
1.13672e-06
0.000935736
1.1307e-06
1.13072e-06
0.000961406
3.28409e-12
1.1264e-06
0.000974346
-1.1307e-06
1.12639e-06
0.000974346
-2.22742e-06
1.13071e-06
0.000961406
-3.25899e-06
1.13671e-06
0.000935736
-4.19822e-06
1.1421e-06
0.000897752
1.14981e-06
0.000848071
-5.01806e-06
4.18453e-06
2.50076e-11
0.000863552
-5.00124e-06
3.24758e-06
2.44101e-11
0.000912111
2.2191e-06
2.12655e-11
0.000949246
1.12638e-06
1.81445e-11
0.000974346
9.64265e-15
1.52773e-11
0.000986999
-1.12638e-06
1.25588e-11
0.000986999
-2.2191e-06
9.80283e-12
0.000974346
-3.24758e-06
6.18858e-12
0.000949246
-4.18452e-06
1.15999e-12
0.000912111
-5.92334e-12
0.000863552
-5.00122e-06
4.18453e-06
-1.14979e-06
0.000863552
-5.00124e-06
3.24758e-06
-1.14207e-06
0.000912111
2.21909e-06
-1.13668e-06
0.000949246
1.12638e-06
-1.13068e-06
0.000974346
-2.71957e-12
-1.12637e-06
0.000986999
-1.12638e-06
-1.12637e-06
0.000986999
-2.2191e-06
-1.13069e-06
0.000974346
-3.24758e-06
-1.1367e-06
0.000949246
-4.18452e-06
-1.1421e-06
0.000912111
-1.14982e-06
0.000863552
-5.00122e-06
4.19822e-06
-2.26102e-06
0.000848071
-5.01806e-06
3.25898e-06
-2.24886e-06
0.000897752
2.22742e-06
-2.23911e-06
0.000935736
1.13069e-06
-2.22741e-06
0.000961406
-5.09982e-12
-2.21909e-06
0.000974346
-1.1307e-06
-2.21909e-06
0.000974346
-2.22743e-06
-2.22742e-06
0.000961406
-3.25899e-06
-2.23913e-06
0.000935736
-4.19822e-06
-2.24888e-06
0.000897752
-2.26105e-06
0.000848071
-5.01805e-06
4.21781e-06
-3.28905e-06
0.00081734
-5.05051e-06
3.27516e-06
-3.28669e-06
0.000869256
2.23912e-06
-3.27516e-06
0.000908932
1.13669e-06
-3.25897e-06
0.000935736
-7.83028e-12
-3.24757e-06
0.000949246
-1.13671e-06
-3.24758e-06
0.000949246
-2.23914e-06
-3.25898e-06
0.000935736
-3.27518e-06
-3.27518e-06
0.000908932
-4.21782e-06
-3.28672e-06
0.000869256
-3.28908e-06
0.00081734
-5.0505e-06
4.22843e-06
-4.18612e-06
0.000771812
-5.08788e-06
3.28669e-06
-4.22843e-06
0.000827059
2.24886e-06
-4.21781e-06
0.000869256
1.14208e-06
-4.19821e-06
0.000897752
-1.11969e-11
-4.18451e-06
0.000912111
-1.14211e-06
-4.18451e-06
0.000912111
-2.24889e-06
-4.19821e-06
0.000897752
-3.28672e-06
-4.21782e-06
0.000869256
-4.22845e-06
-4.22845e-06
0.000827059
-4.18615e-06
0.000771812
-5.08789e-06
4.18611e-06
0.000712164
-4.99622e-06
-4.99622e-06
3.28904e-06
0.000771812
-5.08788e-06
2.26102e-06
0.00081734
-5.0505e-06
1.1498e-06
0.000848071
-5.01805e-06
-1.36386e-11
0.000863552
-5.00122e-06
-1.14983e-06
0.000863552
-5.00122e-06
-2.26105e-06
0.000848071
-5.01805e-06
-3.28908e-06
0.00081734
-5.05051e-06
-4.18615e-06
0.000771812
-5.08789e-06
0.000712164
-4.99624e-06
-4.99624e-06
4.43413e-06
4.43412e-06
0.000713882
-5.29304e-06
-5.29304e-06
3.48362e-06
4.48972e-06
0.000773674
-5.40163e-06
2.39349e-06
4.47404e-06
0.000819312
-5.35667e-06
1.21661e-06
4.44704e-06
0.000850119
-5.31745e-06
2.28824e-11
4.42842e-06
0.000865636
-5.29668e-06
-1.21656e-06
4.42841e-06
0.000865636
-5.29668e-06
-2.39344e-06
4.44703e-06
0.000850119
-5.31744e-06
-3.48357e-06
4.47402e-06
0.000819312
-5.35665e-06
-4.43405e-06
4.48968e-06
0.000773674
-5.40159e-06
4.43405e-06
0.000713882
-5.29299e-06
-5.29298e-06
4.48973e-06
3.48361e-06
0.000773674
-5.40163e-06
3.49132e-06
3.49132e-06
0.000829056
2.38885e-06
3.47701e-06
0.000871355
1.21303e-06
3.45395e-06
0.000899921
1.70379e-11
3.43754e-06
0.000914315
-1.213e-06
3.43753e-06
0.000914315
-2.38881e-06
3.45393e-06
0.000899921
-3.49128e-06
3.47698e-06
0.000871355
-4.48968e-06
3.49128e-06
0.000829056
3.48357e-06
0.000773674
-5.40158e-06
4.47404e-06
2.39349e-06
0.000819312
-5.35667e-06
3.47701e-06
2.38885e-06
0.000871355
2.37878e-06
2.37878e-06
0.000911128
1.20811e-06
2.36261e-06
0.000937998
1.19892e-11
2.35058e-06
0.000951541
-1.20809e-06
2.35057e-06
0.000951541
-2.37876e-06
2.3626e-06
0.000937998
-3.47698e-06
2.37876e-06
0.000911128
-4.47401e-06
2.38882e-06
0.000871355
2.39345e-06
0.000819312
-5.35664e-06
4.44705e-06
1.21661e-06
0.000850119
-5.31745e-06
3.45395e-06
1.21304e-06
0.000899921
2.36261e-06
1.20811e-06
0.000937998
1.20011e-06
1.20012e-06
0.000963731
7.12605e-12
1.19394e-06
0.000976702
-1.2001e-06
1.19393e-06
0.000976702