/*--------------------------------*- C++ -*----------------------------------*\
| =========                 |                                                 |
| \\      /  F ield         | OpenFOAM: The Open Source CFD Toolbox           |
|  \\    /   O peration     | Version:  2412                                  |
|   \\  /    A nd           | Website:  www.openfoam.com                      |
|    \\/     M anipulation  |                                                 |
\*---------------------------------------------------------------------------*/
FoamFile
{
    version     2.0;
    format      ascii;
    arch        "LSB;label=32;scalar=64";
    class       volVectorField;
    location    "0.202";
    object      U;
}
// * * * * * * * * * * * * * * * * * * * * * * * * * * * * * * * * * * * * * //

dimensions      [0 1 -1 0 0 0 0];

internalField   nonuniform List<vector> 
15000
(
(0.00058957 0.000589552 15.0007)
(0.000404282 0.000601402 15.0007)
(0.000293479 0.000609073 15.0007)
(0.000179614 0.000609407 15.0007)
(6.02758e-05 0.000608302 15.0007)
(-6.02568e-05 0.000608297 15.0007)
(-0.000179597 0.000609392 15.0007)
(-0.000293467 0.000609046 15.0007)
(-0.000404264 0.000601359 15.0007)
(-0.000589547 0.000589507 15.0007)
(0.000601421 0.000404261 15.0007)
(0.000423261 0.000423238 15.0007)
(0.000303486 0.000440123 15.0007)
(0.000184704 0.000447747 15.0007)
(6.19134e-05 0.000450507 15.0007)
(-6.19013e-05 0.000450501 15.0007)
(-0.000184695 0.000447728 15.0007)
(-0.000303484 0.000440091 15.0007)
(-0.000423256 0.000423194 15.0007)
(-0.000601399 0.000404211 15.0007)
(0.00060909 0.000293457 15.0007)
(0.000440146 0.000303461 15.0007)
(0.000315172 0.000315147 15.0007)
(0.000190801 0.000321227 15.0007)
(6.38108e-05 0.000323718 15.0007)
(-6.38092e-05 0.000323713 15.0007)
(-0.000190803 0.000321212 15.0007)
(-0.00031518 0.000315123 15.0007)
(-0.000440144 0.000303427 15.0007)
(-0.000609063 0.000293413 15.0007)
(0.000609422 0.000179592 15.0007)
(0.000447768 0.000184679 15.0007)
(0.000321251 0.000190777 15.0007)
(0.000194111 0.000194086 15.0007)
(6.48505e-05 0.000195505 15.0007)
(-6.48567e-05 0.000195502 15.0007)
(-0.00019412 0.000194076 15.0007)
(-0.000321266 0.000190761 15.0007)
(-0.000447771 0.000184656 15.0007)
(-0.000609396 0.000179558 15.0007)
(0.000608316 6.0255e-05 15.0007)
(0.000450528 6.189e-05 15.0007)
(0.000323743 6.37877e-05 15.0007)
(0.00019553 6.48274e-05 15.0007)
(6.53049e-05 6.52816e-05 15.0007)
(-6.5317e-05 6.52788e-05 15.0007)
(-0.000195545 6.48192e-05 15.0007)
(-0.000323762 6.37748e-05 15.0007)
(-0.000450536 6.18724e-05 15.0007)
(-0.000608295 6.02301e-05 15.0007)
(0.000608312 -6.02766e-05 15.0007)
(0.000450524 -6.19227e-05 15.0007)
(0.000323738 -6.38301e-05 15.0007)
(0.000195526 -6.48781e-05 15.0007)
(6.53017e-05 -6.53392e-05 15.0007)
(-6.53191e-05 -6.53418e-05 15.0007)
(-0.000195545 -6.48855e-05 15.0007)
(-0.000323762 -6.38421e-05 15.0007)
(-0.000450535 -6.19388e-05 15.0007)
(-0.000608296 -6.02967e-05 15.0007)
(0.00060941 -0.000179616 15.0007)
(0.000447754 -0.000184714 15.0007)
(0.000321237 -0.000190822 15.0007)
(0.000194099 -0.00019414 15.0007)
(6.4841e-05 -0.000195566 15.0007)
(-6.48633e-05 -0.000195568 15.0007)
(-0.000194123 -0.000194147 15.0007)
(-0.000321266 -0.000190834 15.0007)
(-0.00044777 -0.00018473 15.0007)
(-0.000609399 -0.000179635 15.0007)
(0.000609068 -0.000293483 15.0007)
(0.00044012 -0.0003035 15.0007)
(0.000315149 -0.000315197 15.0007)
(0.000190781 -0.000321285 15.0007)
(6.37943e-05 -0.000323784 15.0007)
(-6.38213e-05 -0.000323785 15.0007)
(-0.000190811 -0.000321291 15.0007)
(-0.000315182 -0.000315208 15.0007)
(-0.000440143 -0.000303516 15.0007)
(-0.000609065 -0.000293503 15.0007)
(0.000601381 -0.000404268 15.0007)
(0.00042322 -0.00042327 15.0007)
(0.000303452 -0.000440166 15.0007)
(0.000184676 -0.000447796 15.0007)
(6.189e-05 -0.000450562 15.0007)
(-6.192e-05 -0.000450563 15.0007)
(-0.000184709 -0.000447799 15.0007)
(-0.000303491 -0.000440172 15.0007)
(-0.000423253 -0.000423281 15.0007)
(-0.000601389 -0.000404289 15.0007)
(0.000589501 -0.00058954 15.0007)
(0.00040422 -0.000601415 15.0007)
(0.000293442 -0.000609096 15.0007)
(0.000179584 -0.000609433 15.0007)
(6.02504e-05 -0.00060833 15.0007)
(-6.02785e-05 -0.00060833 15.0007)
(-0.000179616 -0.000609431 15.0007)
(-0.000293481 -0.000609095 15.0007)
(-0.000404263 -0.000601417 15.0007)
(-0.000589524 -0.00058955 15.0007)
(0.00150096 0.00150093 15.0074)
(0.00112709 0.00157387 15.0074)
(0.000813963 0.00162817 15.0074)
(0.000492866 0.00165674 15.0074)
(0.000164932 0.0016686 15.0074)
(-0.00016489 0.00166861 15.0074)
(-0.000492823 0.00165675 15.0074)
(-0.000813916 0.00162819 15.0074)
(-0.00112701 0.00157388 15.0074)
(-0.00150086 0.00150091 15.0074)
(0.00157391 0.00112706 15.0074)
(0.00117834 0.0011783 15.0074)
(0.000847296 0.00123098 15.0074)
(0.000511531 0.00126234 15.0074)
(0.000170959 0.00127634 15.0074)
(-0.00017091 0.00127634 15.0074)
(-0.00051148 0.00126235 15.0074)
(-0.000847241 0.00123099 15.0074)
(-0.00117826 0.0011783 15.0074)
(-0.00157381 0.00112705 15.0074)
(0.00162821 0.000813941 15.0074)
(0.00123101 0.000847267 15.0074)
(0.000883145 0.000883114 15.0074)
(0.000531467 0.000906086 15.0074)
(0.000177337 0.000916919 15.0074)
(-0.000177285 0.000916918 15.0074)
(-0.000531412 0.000906083 15.0074)
(-0.000883086 0.000883107 15.0074)
(-0.00123093 0.000847251 15.0074)
(-0.00162811 0.00081392 15.0074)
(0.00165677 0.000492845 15.0074)
(0.00126237 0.000511501 15.0074)
(0.000906114 0.000531433 15.0074)
(0.000544689 0.000544655 15.0074)
(0.000181626 0.000551109 15.0074)
(-0.00018158 0.000551105 15.0074)
(-0.000544641 0.000544642 15.0074)
(-0.000906063 0.000531408 15.0074)
(-0.0012623 0.000511461 15.0074)
(-0.00165668 0.000492794 15.0074)
(0.00166863 0.00016491 15.0074)
(0.00127636 0.000170927 15.0074)
(0.000916942 0.000177297 15.0074)
(0.000551142 0.000181584 15.0074)
(0.000183753 0.00018371 15.0074)
(-0.000183718 0.000183704 15.0074)
(-0.000551106 0.000181566 15.0074)
(-0.000916907 0.000177264 15.0074)
(-0.00127631 0.000170875 15.0074)
(-0.00166856 0.000164845 15.0074)
(0.00166862 -0.000164913 15.0074)
(0.00127636 -0.000170947 15.0074)
(0.000916935 -0.000177333 15.0074)
(0.000551135 -0.000181633 15.0074)
(0.000183746 -0.000183772 15.0074)
(-0.000183725 -0.000183779 15.0074)
(-0.000551115 -0.000181655 15.0074)
(-0.000916918 -0.000177372 15.0074)
(-0.00127633 -0.000171004 15.0074)
(-0.00166857 -0.000164984 15.0074)
(0.00165675 -0.000492851 15.0074)
(0.00126234 -0.000511525 15.0074)
(0.000906092 -0.000531472 15.0074)
(0.000544668 -0.000544707 15.0074)
(0.000181607 -0.000551174 15.0074)
(-0.000181601 -0.000551181 15.0074)
(-0.000544665 -0.000544731 15.0074)
(-0.000906094 -0.000531513 15.0074)
(-0.00126234 -0.000511584 15.0074)
(-0.00165672 -0.000492924 15.0074)
(0.00162817 -0.000813955 15.0074)
(0.00123097 -0.000847301 15.0074)
(0.000883107 -0.000883165 15.0074)
(0.000531433 -0.000906148 15.0074)
(0.000177306 -0.000916991 15.0074)
(-0.000177316 -0.000916997 15.0074)
(-0.000531447 -0.00090617 15.0074)
(-0.00088313 -0.000883203 15.0074)
(-0.00123098 -0.000847359 15.0074)
(-0.00162816 -0.000814031 15.0074)
(0.00157385 -0.00112708 15.0074)
(0.00117827 -0.00117834 15.0074)
(0.000847244 -0.00123104 15.0074)
(0.000511487 -0.00126241 15.0074)
(0.000170921 -0.00127641 15.0074)
(-0.000170945 -0.00127642 15.0074)
(-0.000511517 -0.00126242 15.0074)
(-0.000847286 -0.00123107 15.0074)
(-0.00117831 -0.00117839 15.0074)
(-0.00157387 -0.00112715 15.0074)
(0.00150087 -0.00150094 15.0074)
(0.00112701 -0.00157391 15.0074)
(0.000813909 -0.00162823 15.0074)
(0.000492821 -0.0016568 15.0074)
(0.000164893 -0.00166867 15.0074)
(-0.000164924 -0.00166867 15.0074)
(-0.000492856 -0.00165681 15.0074)
(-0.000813957 -0.00162824 15.0074)
(-0.00112707 -0.00157394 15.0074)
(-0.00150092 -0.001501 15.0074)
(0.0024312 0.00243115 15.0222)
(0.00184637 0.00258605 15.0222)
(0.00132335 0.00270125 15.0222)
(0.000798979 0.00276914 15.0222)
(0.000267173 0.00280033 15.0222)
(-0.000267148 0.00280033 15.0222)
(-0.000798956 0.00276914 15.0222)
(-0.00132333 0.00270125 15.0222)
(-0.00184632 0.00258605 15.0222)
(-0.00243112 0.00243113 15.0222)
(0.00258611 0.00184633 15.0222)
(0.00195662 0.00195657 15.0222)
(0.00139517 0.00205851 15.0222)
(0.000838737 0.00212348 15.0222)
(0.000279944 0.00215422 15.0222)
(-0.000279925 0.00215422 15.0222)
(-0.000838718 0.00212348 15.0222)
(-0.00139515 0.0020585 15.0222)
(-0.00195658 0.00195655 15.0222)
(-0.00258604 0.00184628 15.0222)
(0.0027013 0.00132331 15.0222)
(0.00205855 0.00139513 15.0222)
(0.00146426 0.00146421 15.0222)
(0.000877596 0.00151145 15.0222)
(0.000292444 0.00153475 15.0222)
(-0.000292433 0.00153474 15.0222)
(-0.000877585 0.00151144 15.0222)
(-0.00146425 0.0014642 15.0222)
(-0.00205853 0.00139509 15.0222)
(-0.00270125 0.00132326 15.0222)
(0.00276918 0.000798947 15.0222)
(0.00212353 0.000838701 15.0222)
(0.00151149 0.000877558 15.0222)
(0.000905259 0.000905221 15.0222)
(0.000301495 0.000919272 15.0222)
(-0.000301493 0.000919268 15.0222)
(-0.000905257 0.000905207 15.0222)
(-0.00151149 0.000877534 15.0222)
(-0.00212352 0.000838663 15.0222)
(-0.00276915 0.000798892 15.0222)
(0.00280037 0.000267143 15.0222)
(0.00215426 0.000279909 15.0222)
(0.00153479 0.000292407 15.0222)
(0.00091931 0.000301456 15.0222)
(0.000306156 0.000306116 15.0222)
(-0.000306164 0.000306111 15.0222)
(-0.000919318 0.00030144 15.0222)
(-0.0015348 0.000292378 15.0222)
(-0.00215426 0.000279868 15.0222)
(-0.00280035 0.000267088 15.0222)
(0.00280036 -0.000267176 15.0222)
(0.00215425 -0.000279959 15.0222)
(0.00153478 -0.000292472 15.0222)
(0.000919303 -0.000301535 15.0222)
(0.00030615 -0.000306207 15.0222)
(-0.000306169 -0.000306213 15.0222)
(-0.000919324 -0.000301553 15.0222)
(-0.0015348 -0.000292502 15.0222)
(-0.00215427 -0.000280004 15.0222)
(-0.00280035 -0.000267232 15.0222)
(0.00276916 -0.000798982 15.0222)
(0.00212351 -0.000838754 15.0222)
(0.00151147 -0.000877627 15.0222)
(0.00090524 -0.000905304 15.0222)
(0.000301478 -0.000919367 15.0222)
(-0.000301509 -0.000919373 15.0222)
(-0.000905273 -0.000905322 15.0222)
(-0.00151151 -0.000877659 15.0222)
(-0.00212354 -0.0008388 15.0222)
(-0.00276916 -0.00079904 15.0222)
(0.00270126 -0.00132335 15.0222)
(0.00205852 -0.00139519 15.0222)
(0.00146422 -0.0014643 15.0222)
(0.000877564 -0.00151155 15.0222)
(0.000292415 -0.00153485 15.0222)
(-0.000292459 -0.00153486 15.0222)
(-0.00087761 -0.00151156 15.0222)
(-0.00146427 -0.00146433 15.0222)
(-0.00205856 -0.00139524 15.0222)
(-0.00270128 -0.00132341 15.0222)
(0.00258605 -0.00184636 15.0222)
(0.00195655 -0.00195664 15.0222)
(0.00139511 -0.0020586 15.0222)
(0.000838692 -0.00212358 15.0222)
(0.000279905 -0.00215433 15.0222)
(-0.00027996 -0.00215433 15.0222)
(-0.000838751 -0.0021236 15.0222)
(-0.00139518 -0.00205862 15.0222)
(-0.00195662 -0.00195668 15.0222)
(-0.00258608 -0.00184643 15.0222)
(0.0024311 -0.00243118 15.0222)
(0.00184628 -0.00258612 15.0222)
(0.00132328 -0.00270133 15.0222)
(0.000798927 -0.00276922 15.0222)
(0.000267127 -0.00280042 15.0222)
(-0.000267188 -0.00280042 15.0222)
(-0.000798992 -0.00276923 15.0222)
(-0.00132336 -0.00270134 15.0222)
(-0.00184637 -0.00258615 15.0222)
(-0.00243116 -0.00243123 15.0222)
(0.00319275 0.00319272 15.0439)
(0.00241719 0.00342031 15.0439)
(0.00172619 0.00358494 15.0439)
(0.00104124 0.00368525 15.0438)
(0.000348009 0.00373294 15.0438)
(-0.000348001 0.00373293 15.0438)
(-0.00104123 0.00368524 15.0438)
(-0.0017262 0.00358492 15.0439)
(-0.00241718 0.00342028 15.0439)
(-0.00319272 0.00319265 15.0439)
(0.00342035 0.00241716 15.0439)
(0.00258756 0.00258753 15.0439)
(0.00183661 0.00272842 15.0439)
(0.00110289 0.00281908 15.0439)
(0.00036794 0.00286281 15.0439)
(-0.00036795 0.00286281 15.0439)
(-0.0011029 0.00281907 15.0439)
(-0.00183663 0.0027284 15.0439)
(-0.00258758 0.0025875 15.0439)
(-0.00342035 0.00241709 15.0439)
(0.00358498 0.00172617 15.0439)
(0.00272845 0.00183658 15.0439)
(0.00193219 0.00193217 15.0439)
(0.00115744 0.00199757 15.0439)
(0.000385652 0.00203017 15.0438)
(-0.000385677 0.00203016 15.0438)
(-0.00115747 0.00199756 15.0439)
(-0.00193223 0.00193215 15.0439)
(-0.00272848 0.00183655 15.0439)
(-0.003585 0.00172612 15.0439)
(0.00368528 0.00104121 15.0438)
(0.00281911 0.00110287 15.0439)
(0.0019976 0.00115742 15.0439)
(0.00119611 0.0011961 15.0438)
(0.000398387 0.00121581 15.0438)
(-0.000398424 0.00121581 15.0438)
(-0.00119615 0.00119608 15.0438)
(-0.00199764 0.0011574 15.0439)
(-0.00281915 0.00110284 15.0439)
(-0.00368531 0.00104117 15.0438)
(0.00373297 0.000347989 15.0438)
(0.00286284 0.000367924 15.0439)
(0.00203019 0.000385638 15.0438)
(0.00121583 0.000398373 15.0438)
(0.000404946 0.000404932 15.0438)
(-0.000404992 0.000404928 15.0438)
(-0.00121588 0.000398362 15.0438)
(-0.00203024 0.000385617 15.0438)
(-0.00286289 0.000367893 15.0439)
(-0.003733 0.00034795 15.0438)
(0.00373297 -0.000348019 15.0438)
(0.00286284 -0.000367963 15.0439)
(0.00203018 -0.000385689 15.0438)
(0.00121583 -0.000398436 15.0438)
(0.000404942 -0.000405004 15.0438)
(-0.000404995 -0.000405007 15.0438)
(-0.00121588 -0.000398447 15.0438)
(-0.00203024 -0.000385709 15.0438)
(-0.00286289 -0.000367993 15.0439)
(-0.003733 -0.000348056 15.0438)
(0.00368527 -0.00104125 15.0438)
(0.00281909 -0.00110291 15.0439)
(0.00199758 -0.00115748 15.0439)
(0.0011961 -0.00119616 15.0438)
(0.000398375 -0.00121589 15.0438)
(-0.000398434 -0.00121589 15.0438)
(-0.00119616 -0.00119617 15.0438)
(-0.00199764 -0.0011575 15.0439)
(-0.00281915 -0.00110294 15.0439)
(-0.0036853 -0.00104128 15.0438)
(0.00358495 -0.00172621 15.0439)
(0.00272842 -0.00183664 15.0439)
(0.00193217 -0.00193224 15.0439)
(0.00115742 -0.00199765 15.0439)
(0.000385631 -0.00203025 15.0438)
(-0.000385696 -0.00203026 15.0438)
(-0.00115748 -0.00199766 15.0439)
(-0.00193224 -0.00193226 15.0439)
(-0.00272848 -0.00183667 15.0439)
(-0.00358499 -0.00172625 15.0439)
(0.0034203 -0.0024172 15.0439)
(0.00258752 -0.00258759 15.0439)
(0.00183656 -0.00272849 15.0439)
(0.00110285 -0.00281916 15.0439)
(0.000367907 -0.0028629 15.0439)
(-0.000367979 -0.0028629 15.0439)
(-0.00110293 -0.00281916 15.0439)
(-0.00183665 -0.00272851 15.0439)
(-0.00258759 -0.00258762 15.0439)
(-0.00342035 -0.00241724 15.0439)
(0.00319267 -0.00319274 15.0439)
(0.00241712 -0.00342036 15.0439)
(0.00172614 -0.00358501 15.0439)
(0.00104119 -0.00368532 15.0438)
(0.000347964 -0.00373301 15.0438)
(-0.000348043 -0.00373301 15.0438)
(-0.00104127 -0.00368532 15.0438)
(-0.00172623 -0.00358502 15.0439)
(-0.00241721 -0.00342038 15.0439)
(-0.00319275 -0.00319278 15.0439)
(0.0037774 0.00377739 15.0705)
(0.00283194 0.00406048 15.0705)
(0.00201819 0.00425828 15.0705)
(0.00121713 0.0043792 15.0705)
(0.000406667 0.00443726 15.0705)
(-0.000406658 0.00443726 15.0705)
(-0.00121712 0.00437919 15.0705)
(-0.00201819 0.00425825 15.0705)
(-0.00283194 0.00406043 15.0705)
(-0.00377738 0.00377731 15.0705)
(0.00406049 0.00283193 15.0705)
(0.00305787 0.00305786 15.0705)
(0.00216424 0.00322571 15.0705)
(0.00129971 0.00333142 15.0705)
(0.000433566 0.0033823 15.0705)
(-0.000433577 0.00338229 15.0705)
(-0.00129973 0.00333141 15.0705)
(-0.00216426 0.00322568 15.0705)
(-0.00305789 0.00305782 15.0705)
(-0.0040605 0.00283186 15.0705)
(0.00425828 0.00201818 15.0705)
(0.00322571 0.00216424 15.0705)
(0.00227888 0.00227888 15.0705)
(0.00136621 0.00235475 15.0705)
(0.000455378 0.00239214 15.0705)
(-0.000455407 0.00239214 15.0705)
(-0.00136624 0.00235474 15.0705)
(-0.00227892 0.00227886 15.0705)
(-0.00322575 0.0021642 15.0705)
(-0.00425831 0.00201813 15.0705)
(0.00437921 0.00121712 15.0705)
(0.00333142 0.00129972 15.0705)
(0.00235474 0.00136622 15.0705)
(0.00141146 0.00141147 15.0705)
(0.000470373 0.00143412 15.0705)
(-0.000470413 0.00143412 15.0705)
(-0.00141151 0.00141146 15.0705)
(-0.0023548 0.0013662 15.0705)
(-0.00333147 0.00129968 15.0705)
(-0.00437925 0.00121708 15.0705)
(0.00443726 0.000406667 15.0705)
(0.0033823 0.000433573 15.0705)
(0.00239214 0.00045539 15.0705)
(0.00143411 0.000470386 15.0705)
(0.000477922 0.000477935 15.0705)
(-0.00047797 0.000477932 15.0705)
(-0.00143416 0.000470377 15.0705)
(-0.0023922 0.000455373 15.0705)
(-0.00338235 0.000433548 15.0705)
(-0.0044373 0.000406632 15.0705)
(0.00443726 -0.000406657 15.0705)
(0.00338229 -0.000433568 15.0705)
(0.00239214 -0.000455393 15.0705)
(0.00143411 -0.000470398 15.0705)
(0.000477919 -0.000477954 15.0705)
(-0.000477972 -0.000477957 15.0705)
(-0.00143416 -0.000470405 15.0705)
(-0.0023922 -0.000455407 15.0705)
(-0.00338235 -0.000433591 15.0705)
(-0.00443729 -0.000406688 15.0705)
(0.0043792 -0.00121712 15.0705)
(0.00333141 -0.00129971 15.0705)
(0.00235473 -0.00136623 15.0705)
(0.00141145 -0.00141149 15.0705)
(0.000470364 -0.00143414 15.0705)
(-0.000470419 -0.00143414 15.0705)
(-0.00141151 -0.00141149 15.0705)
(-0.00235479 -0.00136624 15.0705)
(-0.00333146 -0.00129974 15.0705)
(-0.00437923 -0.00121715 15.0705)
(0.00425826 -0.00201819 15.0705)
(0.00322569 -0.00216425 15.0705)
(0.00227886 -0.0022789 15.0705)
(0.00136619 -0.00235478 15.0705)
(0.000455362 -0.00239218 15.0705)
(-0.00045542 -0.00239218 15.0705)
(-0.00136625 -0.00235478 15.0705)
(-0.00227892 -0.00227891 15.0705)
(-0.00322574 -0.00216427 15.0705)
(-0.00425829 -0.00201822 15.0705)
(0.00406044 -0.00283193 15.0705)
(0.00305782 -0.00305787 15.0705)
(0.0021642 -0.00322573 15.0705)
(0.00129968 -0.00333145 15.0705)
(0.000433538 -0.00338233 15.0705)
(-0.000433602 -0.00338233 15.0705)
(-0.00129975 -0.00333145 15.0705)
(-0.00216428 -0.00322574 15.0705)
(-0.00305789 -0.00305789 15.0705)
(-0.00406049 -0.00283196 15.0705)
(0.00377733 -0.00377737 15.0705)
(0.00283187 -0.00406048 15.0705)
(0.00201814 -0.00425829 15.0705)
(0.00121708 -0.00437922 15.0705)
(0.000406627 -0.00443728 15.0705)
(-0.000406696 -0.00443728 15.0705)
(-0.00121715 -0.00437922 15.0705)
(-0.00201822 -0.00425829 15.0705)
(-0.00283196 -0.00406049 15.0705)
(-0.00377739 -0.0037774 15.0705)
(0.00425628 0.00425627 15.1007)
(0.00315387 0.0045824 15.1007)
(0.00224465 0.004802 15.1007)
(0.00135383 0.00493437 15.1008)
(0.000452265 0.0049976 15.1008)
(-0.000452241 0.0049976 15.1008)
(-0.0013538 0.00493436 15.1008)
(-0.00224463 0.00480198 15.1007)
(-0.00315384 0.00458236 15.1007)
(-0.00425624 0.0042562 15.1007)
(0.0045824 0.00315387 15.1007)
(0.00343086 0.00343086 15.1008)
(0.00242375 0.00361775 15.1008)
(0.00145638 0.00373086 15.1008)
(0.000485885 0.00378434 15.1008)
(-0.000485877 0.00378433 15.1008)
(-0.00145637 0.00373085 15.1008)
(-0.00242375 0.00361773 15.1008)
(-0.00343085 0.00343082 15.1008)
(-0.00458239 0.00315379 15.1007)
(0.00480199 0.00224465 15.1007)
(0.00361774 0.00242376 15.1008)
(0.00255253 0.00255255 15.1008)
(0.00153231 0.00263337 15.1008)
(0.000511044 0.00267212 15.1008)
(-0.00051105 0.00267212 15.1008)
(-0.00153232 0.00263336 15.1008)
(-0.00255255 0.00255253 15.1008)
(-0.00361776 0.00242373 15.1008)
(-0.004802 0.0022446 15.1007)
(0.00493436 0.00135384 15.1008)
(0.00373085 0.00145639 15.1008)
(0.00263335 0.00153233 15.1008)
(0.00158092 0.00158094 15.1009)
(0.000527254 0.00160441 15.1009)
(-0.000527271 0.00160441 15.1009)
(-0.00158094 0.00158093 15.1009)
(-0.00263338 0.00153231 15.1008)
(-0.00373087 0.00145636 15.1008)
(-0.00493437 0.00135379 15.1008)
(0.00499759 0.000452276 15.1008)
(0.00378432 0.000485903 15.1008)
(0.0026721 0.000511065 15.1008)
(0.00160439 0.000527277 15.1009)
(0.000535093 0.000535117 15.1009)
(-0.000535117 0.000535114 15.1009)
(-0.00160442 0.000527268 15.1009)
(-0.00267214 0.000511049 15.1008)
(-0.00378435 0.000485876 15.1008)
(-0.0049976 0.00045224 15.1008)
(0.00499758 -0.000452229 15.1008)
(0.00378432 -0.000485858 15.1008)
(0.0026721 -0.000511027 15.1008)
(0.00160439 -0.000527246 15.1009)
(0.00053509 -0.000535092 15.1009)
(-0.00053512 -0.000535095 15.1009)
(-0.00160442 -0.000527254 15.1009)
(-0.00267214 -0.000511042 15.1008)
(-0.00378435 -0.000485882 15.1008)
(-0.00499759 -0.000452262 15.1008)
(0.00493435 -0.00135379 15.1008)
(0.00373083 -0.00145635 15.1008)
(0.00263334 -0.0015323 15.1008)
(0.00158091 -0.00158091 15.1009)
(0.000527245 -0.00160439 15.1009)
(-0.000527278 -0.00160439 15.1009)
(-0.00158094 -0.00158092 15.1009)
(-0.00263338 -0.00153231 15.1008)
(-0.00373086 -0.00145637 15.1008)
(-0.00493436 -0.00135382 15.1008)
(0.00480197 -0.00224462 15.1007)
(0.00361772 -0.00242373 15.1008)
(0.00255251 -0.00255253 15.1008)
(0.00153229 -0.00263335 15.1008)
(0.000511027 -0.00267211 15.1008)
(-0.000511064 -0.00267211 15.1008)
(-0.00153233 -0.00263336 15.1008)
(-0.00255256 -0.00255254 15.1008)
(-0.00361775 -0.00242375 15.1008)
(-0.00480198 -0.00224465 15.1007)
(0.00458236 -0.00315382 15.1007)
(0.00343081 -0.00343084 15.1008)
(0.00242371 -0.00361774 15.1008)
(0.00145634 -0.00373085 15.1008)
(0.000485858 -0.00378433 15.1008)
(-0.000485901 -0.00378433 15.1008)
(-0.00145639 -0.00373085 15.1008)
(-0.00242377 -0.00361774 15.1008)
(-0.00343086 -0.00343085 15.1008)
(-0.00458239 -0.00315386 15.1007)
(0.0042562 -0.00425622 15.1007)
(0.0031538 -0.00458237 15.1007)
(0.0022446 -0.00480197 15.1007)
(0.00135378 -0.00493435 15.1008)
(0.000452227 -0.00499758 15.1008)
(-0.000452276 -0.00499758 15.1008)
(-0.00135384 -0.00493435 15.1008)
(-0.00224466 -0.00480198 15.1007)
(-0.00315386 -0.00458238 15.1007)
(-0.00425625 -0.00425625 15.1007)
(0.00465219 0.00465219 15.134)
(0.00341109 0.00501308 15.134)
(0.00242516 0.00524782 15.134)
(0.00146286 0.00538624 15.1341)
(0.000488637 0.00545154 15.1341)
(-0.000488594 0.00545154 15.1341)
(-0.00146281 0.00538623 15.1341)
(-0.00242512 0.0052478 15.134)
(-0.00341104 0.00501304 15.134)
(-0.00465212 0.00465212 15.134)
(0.00501308 0.00341109 15.134)
(0.00373361 0.00373362 15.1341)
(0.00263415 0.00393432 15.1341)
(0.0015838 0.00405022 15.1341)
(0.000528486 0.00410355 15.1342)
(-0.000528455 0.00410354 15.1342)
(-0.00158377 0.00405021 15.1341)
(-0.00263413 0.0039343 15.1341)
(-0.00373358 0.00373358 15.1341)
(-0.00501303 0.00341103 15.134)
(0.00524781 0.00242516 15.134)
(0.00393431 0.00263416 15.1341)
(0.00277373 0.00277374 15.1342)
(0.00166736 0.0028562 15.1342)
(0.000556426 0.00289425 15.1342)
(-0.000556408 0.00289425 15.1342)
(-0.00166735 0.00285619 15.1342)
(-0.00277372 0.00277372 15.1342)
(-0.00393429 0.00263413 15.1341)
(-0.00524778 0.00242511 15.134)
(0.00538623 0.00146287 15.1341)
(0.00405021 0.00158382 15.1341)
(0.00285619 0.00166738 15.1342)
(0.00171739 0.0017174 15.1342)
(0.000573215 0.00174044 15.1342)
(-0.000573208 0.00174044 15.1342)
(-0.00171738 0.00171739 15.1342)
(-0.00285618 0.00166736 15.1342)
(-0.0040502 0.00158378 15.1341)
(-0.00538621 0.00146283 15.1341)
(0.00545153 0.000488649 15.1341)
(0.00410353 0.000528502 15.1342)
(0.00289424 0.000556445 15.1342)
(0.00174042 0.000573236 15.1342)
(0.000580925 0.000580947 15.1342)
(-0.000580926 0.000580943 15.1342)
(-0.00174042 0.000573225 15.1342)
(-0.00289424 0.000556426 15.1342)
(-0.00410353 0.000528474 15.1342)
(-0.00545151 0.000488612 15.1341)
(0.00545153 -0.000488582 15.1341)
(0.00410353 -0.000528439 15.1342)
(0.00289423 -0.000556389 15.1342)
(0.00174042 -0.000573187 15.1342)
(0.000580921 -0.000580905 15.1342)
(-0.00058093 -0.000580908 15.1342)
(-0.00174043 -0.000573197 15.1342)
(-0.00289425 -0.000556406 15.1342)
(-0.00410353 -0.000528465 15.1342)
(-0.00545151 -0.000488616 15.1341)
(0.00538622 -0.0014628 15.1341)
(0.0040502 -0.00158376 15.1341)
(0.00285617 -0.00166733 15.1342)
(0.00171737 -0.00171736 15.1342)
(0.000573204 -0.0017404 15.1342)
(-0.000573218 -0.00174041 15.1342)
(-0.00171739 -0.00171737 15.1342)
(-0.00285619 -0.00166735 15.1342)
(-0.0040502 -0.00158378 15.1341)
(-0.00538621 -0.00146284 15.1341)
(0.00524779 -0.00242511 15.134)
(0.00393429 -0.00263412 15.1341)
(0.00277371 -0.0027737 15.1342)
(0.00166734 -0.00285617 15.1342)
(0.000556405 -0.00289423 15.1342)
(-0.000556426 -0.00289423 15.1342)
(-0.00166736 -0.00285618 15.1342)
(-0.00277373 -0.00277372 15.1342)
(-0.0039343 -0.00263414 15.1341)
(-0.00524778 -0.00242514 15.134)
(0.00501303 -0.00341103 15.134)
(0.00373356 -0.00373357 15.1341)
(0.00263411 -0.00393429 15.1341)
(0.00158377 -0.00405019 15.1341)
(0.000528455 -0.00410352 15.1342)
(-0.000528483 -0.00410353 15.1342)
(-0.0015838 -0.0040502 15.1341)
(-0.00263415 -0.0039343 15.1341)
(-0.00373359 -0.00373359 15.1341)
(-0.00501303 -0.00341107 15.134)
(0.00465211 -0.00465212 15.134)
(0.00341102 -0.00501303 15.134)
(0.00242511 -0.00524778 15.134)
(0.00146281 -0.0053862 15.1341)
(0.000488597 -0.00545151 15.1341)
(-0.00048863 -0.00545151 15.1341)
(-0.00146285 -0.00538621 15.1341)
(-0.00242515 -0.00524778 15.134)
(-0.00341107 -0.00501304 15.134)
(-0.00465214 -0.00465215 15.134)
(0.00496362 0.00496362 15.1696)
(0.00360749 0.00535183 15.1697)
(0.00256243 0.00559702 15.1697)
(0.00154579 0.0057382 15.1697)
(0.000516296 0.00580382 15.1698)
(-0.000516252 0.00580382 15.1698)
(-0.00154575 0.00573818 15.1697)
(-0.00256239 0.005597 15.1697)
(-0.00360743 0.0053518 15.1697)
(-0.00496355 0.00496355 15.1696)
(0.00535184 0.00360749 15.1697)
(0.0039684 0.0039684 15.1698)
(0.00279693 0.00417883 15.1698)
(0.00168262 0.00429475 15.1699)
(0.000561542 0.00434643 15.1699)
(-0.000561511 0.00434643 15.1699)
(-0.00168259 0.00429474 15.1699)
(-0.0027969 0.0041788 15.1698)
(-0.00396836 0.00396836 15.1698)
(-0.00535179 0.00360742 15.1697)
(0.00559703 0.00256244 15.1697)
(0.00417883 0.00279694 15.1698)
(0.00294453 0.00294454 15.1699)
(0.00177218 0.00302668 15.1699)
(0.000591721 0.00306295 15.17)
(-0.000591703 0.00306295 15.17)
(-0.00177216 0.00302666 15.1699)
(-0.00294451 0.00294451 15.1699)
(-0.0041788 0.0027969 15.1698)
(-0.00559699 0.00256239 15.1697)
(0.0057382 0.0015458 15.1697)
(0.00429475 0.00168264 15.1699)
(0.00302667 0.00177219 15.1699)
(0.00182244 0.00182245 15.17)
(0.0006087 0.0018444 15.17)
(-0.000608693 0.00184439 15.17)
(-0.00182243 0.00182244 15.17)
(-0.00302667 0.00177217 15.1699)
(-0.00429474 0.0016826 15.1699)
(-0.00573817 0.00154576 15.1697)
(0.00580382 0.000516305 15.1698)
(0.00434643 0.000561554 15.1699)
(0.00306294 0.000591735 15.17)
(0.00184438 0.000608714 15.17)
(0.00061606 0.000616075 15.17)
(-0.000616063 0.00061607 15.17)
(-0.00184439 0.000608701 15.17)
(-0.00306295 0.000591713 15.17)
(-0.00434643 0.000561524 15.1699)
(-0.0058038 0.000516269 15.1698)
(0.00580382 -0.000516244 15.1698)
(0.00434643 -0.000561501 15.1699)
(0.00306294 -0.000591691 15.17)
(0.00184438 -0.000608679 15.17)
(0.000616055 -0.000616049 15.17)
(-0.000616068 -0.000616053 15.17)
(-0.00184439 -0.000608691 15.17)
(-0.00306295 -0.000591711 15.17)
(-0.00434643 -0.000561529 15.1699)
(-0.00580379 -0.000516279 15.1698)
(0.00573818 -0.00154574 15.1697)
(0.00429473 -0.00168259 15.1699)
(0.00302666 -0.00177215 15.1699)
(0.00182243 -0.00182242 15.17)
(0.000608686 -0.00184438 15.17)
(-0.000608706 -0.00184438 15.17)
(-0.00182244 -0.00182243 15.17)
(-0.00302668 -0.00177217 15.1699)
(-0.00429474 -0.00168261 15.1699)
(-0.00573817 -0.00154578 15.1697)
(0.005597 -0.00256239 15.1697)
(0.0041788 -0.0027969 15.1698)
(0.0029445 -0.00294451 15.1699)
(0.00177216 -0.00302666 15.1699)
(0.000591698 -0.00306294 15.17)
(-0.000591726 -0.00306295 15.17)
(-0.00177218 -0.00302667 15.1699)
(-0.00294453 -0.00294453 15.1699)
(-0.00417881 -0.00279693 15.1698)
(-0.00559699 -0.00256242 15.1697)
(0.00535179 -0.00360743 15.1697)
(0.00396835 -0.00396836 15.1698)
(0.00279689 -0.0041788 15.1698)
(0.00168259 -0.00429474 15.1699)
(0.000561508 -0.00434643 15.1699)
(-0.000561544 -0.00434643 15.1699)
(-0.00168262 -0.00429474 15.1699)
(-0.00279693 -0.00417882 15.1698)
(-0.00396838 -0.00396839 15.1698)
(-0.00535179 -0.00360747 15.1697)
(0.00496354 -0.00496355 15.1696)
(0.00360742 -0.00535179 15.1697)
(0.00256238 -0.00559699 15.1697)
(0.00154575 -0.00573817 15.1697)
(0.000516254 -0.0058038 15.1698)
(-0.000516292 -0.0058038 15.1698)
(-0.00154579 -0.00573818 15.1697)
(-0.00256242 -0.005597 15.1697)
(-0.00360746 -0.00535181 15.1697)
(-0.00496357 -0.00496359 15.1696)
(0.00520131 0.00520129 15.2071)
(0.00375264 0.00561003 15.2072)
(0.00266353 0.00586211 15.2072)
(0.00160692 0.00600397 15.2072)
(0.000536664 0.00606896 15.2072)
(-0.000536647 0.00606896 15.2072)
(-0.0016069 0.00600395 15.2072)
(-0.00266351 0.00586209 15.2072)
(-0.0037526 0.00560999 15.2072)
(-0.00520125 0.00520122 15.2071)
(0.00561005 0.00375264 15.2072)
(0.00414446 0.00414445 15.2073)
(0.00291874 0.00436151 15.2073)
(0.00175676 0.00447597 15.2074)
(0.000586342 0.00452538 15.2074)
(-0.000586338 0.00452538 15.2074)
(-0.00175675 0.00447596 15.2074)
(-0.00291873 0.00436148 15.2073)
(-0.00414445 0.0041444 15.2073)
(-0.00561002 0.00375257 15.2072)
(0.00586213 0.00266353 15.2072)
(0.00436152 0.00291874 15.2073)
(0.00307213 0.00307213 15.2074)
(0.00185089 0.00315296 15.2075)
(0.000618269 0.00318704 15.2075)
(-0.000618278 0.00318703 15.2075)
(-0.00185089 0.00315294 15.2075)
(-0.00307214 0.0030721 15.2074)
(-0.00436152 0.00291869 15.2073)
(-0.00586211 0.00266349 15.2072)
(0.00600398 0.00160693 15.2072)
(0.00447598 0.00175676 15.2074)
(0.00315296 0.00185089 15.2075)
(0.00190073 0.00190074 15.2075)
(0.00063521 0.00192134 15.2075)
(-0.000635231 0.00192133 15.2075)
(-0.00190075 0.00190072 15.2075)
(-0.00315297 0.00185086 15.2075)
(-0.00447599 0.00175672 15.2074)
(-0.00600397 0.00160689 15.2072)
(0.00606897 0.000536673 15.2072)
(0.00452539 0.00058635 15.2074)
(0.00318704 0.000618276 15.2075)
(0.00192133 0.000635217 15.2075)
(0.000642135 0.000642143 15.2076)
(-0.000642168 0.000642138 15.2076)
(-0.00192136 0.000635203 15.2075)
(-0.00318707 0.000618252 15.2075)
(-0.00452541 0.000586318 15.2074)
(-0.00606897 0.000536635 15.2072)
(0.00606897 -0.000536642 15.2072)
(0.00452539 -0.000586332 15.2074)
(0.00318703 -0.000618272 15.2075)
(0.00192133 -0.000635224 15.2075)
(0.00064213 -0.000642161 15.2076)
(-0.000642173 -0.000642165 15.2076)
(-0.00192137 -0.000635238 15.2075)
(-0.00318707 -0.000618294 15.2075)
(-0.00452541 -0.000586363 15.2074)
(-0.00606897 -0.000536679 15.2072)
(0.00600396 -0.0016069 15.2072)
(0.00447597 -0.00175675 15.2074)
(0.00315294 -0.00185089 15.2075)
(0.00190072 -0.00190075 15.2075)
(0.000635195 -0.00192136 15.2075)
(-0.000635246 -0.00192136 15.2075)
(-0.00190076 -0.00190076 15.2075)
(-0.00315299 -0.00185091 15.2075)
(-0.004476 -0.00175678 15.2074)
(-0.00600397 -0.00160694 15.2072)