/*--------------------------------*- C++ -*----------------------------------*\
| =========                 |                                                 |
| \\      /  F ield         | OpenFOAM: The Open Source CFD Toolbox           |
|  \\    /   O peration     | Version:  2412                                  |
|   \\  /    A nd           | Website:  www.openfoam.com                      |
|    \\/     M anipulation  |                                                 |
\*---------------------------------------------------------------------------*/
FoamFile
{
    version     2.0;
    format      ascii;
    arch        "LSB;label=32;scalar=64";
    class       surfaceScalarField;
    location    "2.6";
    object      phi;
}
// * * * * * * * * * * * * * * * * * * * * * * * * * * * * * * * * * * * * * //

dimensions      [0 3 -1 0 0 0 0];

oriented        oriented;

internalField   nonuniform List<scalar> 
43700
(
1.59103e-07
1.59103e-07
5.42583e-07
-1.95385e-07
-1.95385e-07
1.16625e-07
1.39684e-07
5.83519e-07
-1.71341e-07
7.69932e-08
1.28198e-07
6.13242e-07
-1.62378e-07
3.81432e-08
1.20631e-07
6.32708e-07
-1.54776e-07
-1.37396e-15
1.17059e-07
6.42394e-07
-1.51381e-07
-3.81432e-08
1.17059e-07
6.42394e-07
-1.51381e-07
-7.69932e-08
1.20631e-07
6.32708e-07
-1.54776e-07
-1.16625e-07
1.28198e-07
6.13242e-07
-1.62378e-07
-1.59103e-07
1.39684e-07
5.83519e-07
-1.71341e-07
1.59103e-07
5.42583e-07
-1.95385e-07
-1.95385e-07
1.39684e-07
1.16625e-07
5.83519e-07
-1.71341e-07
1.03659e-07
1.03659e-07
6.17894e-07
6.83145e-08
9.43122e-08
6.4292e-07
3.38426e-08
8.81374e-08
6.59462e-07
-1.83928e-15
8.51495e-08
6.67724e-07
-3.38426e-08
8.51495e-08
6.67724e-07
-6.83145e-08
8.81374e-08
6.59462e-07
-1.03659e-07
9.43122e-08
6.4292e-07
-1.39684e-07
1.03659e-07
6.17894e-07
1.16625e-07
5.83519e-07
-1.71341e-07
1.28198e-07
7.69932e-08
6.13242e-07
-1.62378e-07
9.43122e-08
6.83145e-08
6.4292e-07
6.18364e-08
6.18364e-08
6.64825e-07
3.05677e-08
5.75416e-08
6.79427e-07
-2.4666e-16
5.54466e-08
6.86749e-07
-3.05677e-08
5.54466e-08
6.86749e-07
-6.18364e-08
5.75416e-08
6.79427e-07
-9.43122e-08
6.18364e-08
6.64825e-07
-1.28198e-07
6.83145e-08
6.4292e-07
7.69932e-08
6.13242e-07
-1.62378e-07
1.20631e-07
3.81432e-08
6.32708e-07
-1.54776e-07
8.81374e-08
3.38426e-08
6.59462e-07
5.75416e-08
3.05677e-08
6.79427e-07
2.83815e-08
2.83815e-08
6.92823e-07
4.39042e-16
2.73104e-08
6.9956e-07
-2.83815e-08
2.73104e-08
6.9956e-07
-5.75416e-08
2.83815e-08
6.92823e-07
-8.81374e-08
3.05677e-08
6.79427e-07
-1.20631e-07
3.38426e-08
6.59462e-07
3.81432e-08
6.32708e-07
-1.54776e-07
1.17059e-07
-3.10116e-15
6.42394e-07
-1.51381e-07
8.51496e-08
-1.90925e-15
6.67724e-07
5.54466e-08
2.5671e-16
6.86749e-07
2.73104e-08
1.0241e-15
6.9956e-07
8.53653e-16
1.147e-15
7.06013e-07
-2.73104e-08
6.20095e-16
7.06013e-07
-5.54466e-08
8.46418e-16
6.9956e-07
-8.51495e-08
1.00123e-15
6.86749e-07
-1.17059e-07
3.00787e-15
6.67724e-07
3.23104e-15
6.42394e-07
-1.51381e-07
1.17059e-07
-3.81432e-08
6.42394e-07
-1.51381e-07
8.51495e-08
-3.38426e-08
6.67724e-07
5.54466e-08
-3.05677e-08
6.86749e-07
2.73104e-08
-2.83815e-08
6.9956e-07
4.75638e-16
-2.73104e-08
7.06013e-07
-2.73104e-08
-2.73104e-08
7.06013e-07
-5.54466e-08
-2.83815e-08
6.9956e-07
-8.51495e-08
-3.05677e-08
6.86749e-07
-1.17059e-07
-3.38426e-08
6.67724e-07
-3.81432e-08
6.42394e-07
-1.51381e-07
1.20631e-07
-7.69932e-08
6.32708e-07
-1.54776e-07
8.81374e-08
-6.83145e-08
6.59462e-07
5.75416e-08
-6.18364e-08
6.79427e-07
2.83815e-08
-5.75416e-08
6.92823e-07
1.22649e-16
-5.54466e-08
6.9956e-07
-2.83815e-08
-5.54466e-08
6.9956e-07
-5.75416e-08
-5.75416e-08
6.92823e-07
-8.81374e-08
-6.18364e-08
6.79427e-07
-1.20631e-07
-6.83145e-08
6.59462e-07
-7.69932e-08
6.32708e-07
-1.54776e-07
1.28198e-07
-1.16625e-07
6.13242e-07
-1.62378e-07
9.43122e-08
-1.03659e-07
6.4292e-07
6.18364e-08
-9.43122e-08
6.64825e-07
3.05677e-08
-8.81374e-08
6.79427e-07
5.17411e-16
-8.51495e-08
6.86749e-07
-3.05677e-08
-8.51495e-08
6.86749e-07
-6.18364e-08
-8.81374e-08
6.79427e-07
-9.43122e-08
-9.43122e-08
6.64825e-07
-1.28198e-07
-1.03659e-07
6.4292e-07
-1.16625e-07
6.13242e-07
-1.62378e-07
1.39684e-07
-1.59103e-07
5.83519e-07
-1.71341e-07
1.03659e-07
-1.39684e-07
6.17894e-07
6.83145e-08
-1.28198e-07
6.4292e-07
3.38426e-08
-1.20631e-07
6.59462e-07
2.75543e-15
-1.17059e-07
6.67724e-07
-3.38426e-08
-1.17059e-07
6.67724e-07
-6.83145e-08
-1.20631e-07
6.59462e-07
-1.03659e-07
-1.28198e-07
6.4292e-07
-1.39684e-07
-1.39684e-07
6.17894e-07
-1.59103e-07
5.83519e-07
-1.71341e-07
1.59103e-07
5.42583e-07
-1.95385e-07
-1.95385e-07
1.16625e-07
5.83519e-07
-1.71341e-07
7.69932e-08
6.13242e-07
-1.62378e-07
3.81432e-08
6.32708e-07
-1.54776e-07
2.63437e-15
6.42394e-07
-1.51381e-07
-3.81432e-08
6.42394e-07
-1.51381e-07
-7.69932e-08
6.32708e-07
-1.54776e-07
-1.16625e-07
6.13242e-07
-1.62378e-07
-1.59103e-07
5.83519e-07
-1.71341e-07
5.42583e-07
-1.95385e-07
-1.95385e-07
6.89245e-08
6.89244e-08
5.63134e-07
-7.92002e-08
-7.92002e-08
5.44867e-08
6.82412e-08
6.07757e-07
-7.80416e-08
3.7745e-08
6.8044e-08
6.40131e-07
-7.81911e-08
1.9254e-08
6.7645e-08
6.61359e-07
-7.78051e-08
1.11295e-15
6.75302e-08
6.71936e-07
-7.78187e-08
-1.9254e-08
6.75302e-08
6.71936e-07
-7.78187e-08
-3.7745e-08
6.7645e-08
6.61359e-07
-7.78051e-08
-5.44867e-08
6.8044e-08
6.40131e-07
-7.81911e-08
-6.89244e-08
6.82412e-08
6.07757e-07
-7.80416e-08
6.89245e-08
5.63134e-07
-7.92002e-08
-7.92002e-08
6.82412e-08
5.44867e-08
6.07757e-07
-7.80416e-08
5.44106e-08
5.44106e-08
6.45555e-07
3.78805e-08
5.42962e-08
6.73198e-07
1.94069e-08
5.40442e-08
6.91536e-07
-4.59288e-16
5.39392e-08
7.00722e-07
-1.94069e-08
5.39392e-08
7.00722e-07
-3.78805e-08
5.40442e-08
6.91536e-07
-5.44106e-08
5.42962e-08
6.73198e-07
-6.82412e-08
5.44106e-08
6.45555e-07
5.44867e-08
6.07757e-07
-7.80416e-08
6.8044e-08
3.7745e-08
6.40131e-07
-7.81911e-08
5.42962e-08
3.78805e-08
6.73198e-07
3.78351e-08
3.78351e-08
6.97747e-07
1.94146e-08
3.76954e-08
7.14197e-07
8.06849e-16
3.76254e-08
7.22477e-07
-1.94146e-08
3.76254e-08
7.22477e-07
-3.78351e-08
3.76954e-08
7.14197e-07
-5.42962e-08
3.78351e-08
6.97747e-07
-6.8044e-08
3.78805e-08
6.73198e-07
3.7745e-08
6.40131e-07
-7.81911e-08
6.7645e-08
1.9254e-08
6.61359e-07
-7.78051e-08
5.40442e-08
1.94069e-08
6.91536e-07
3.76954e-08
1.94146e-08
7.14197e-07
1.93619e-08
1.93619e-08
7.2949e-07
2.25554e-15
1.9331e-08
7.37216e-07
-1.93618e-08
1.9331e-08
7.37216e-07
-3.76954e-08
1.93618e-08
7.2949e-07
-5.40442e-08
1.94146e-08
7.14197e-07
-6.7645e-08
1.9407e-08
6.91536e-07
1.9254e-08
6.61359e-07
-7.78051e-08
6.75302e-08
-1.90393e-15
6.71936e-07
-7.78187e-08
5.39392e-08
-1.27145e-15
7.00722e-07
3.76254e-08
1.77898e-15
7.22477e-07
1.9331e-08
3.16266e-15
7.37216e-07
2.29e-15
2.56968e-15
7.44675e-07
-1.9331e-08
1.73411e-15
7.44675e-07
-3.76254e-08
8.07353e-16
7.37216e-07
-5.39392e-08
1.40451e-15
7.22477e-07
-6.75302e-08
5.34019e-15
7.00722e-07
5.24846e-15
6.71936e-07
-7.78187e-08
6.75302e-08
-1.9254e-08
6.71936e-07
-7.78187e-08
5.39392e-08
-1.94069e-08
7.00722e-07
3.76254e-08
-1.94146e-08
7.22477e-07
1.9331e-08
-1.93618e-08
7.37216e-07
1.30854e-15
-1.9331e-08
7.44675e-07
-1.9331e-08
-1.9331e-08
7.44675e-07
-3.76254e-08
-1.93618e-08
7.37216e-07
-5.39392e-08
-1.94146e-08
7.22477e-07
-6.75302e-08
-1.94069e-08
7.00722e-07
-1.9254e-08
6.71936e-07
-7.78187e-08
6.7645e-08
-3.7745e-08
6.61359e-07
-7.78051e-08
5.40442e-08
-3.78805e-08
6.91536e-07
3.76954e-08
-3.78351e-08
7.14197e-07
1.93618e-08
-3.76954e-08
7.2949e-07
2.00664e-16
-3.76254e-08
7.37216e-07
-1.93618e-08
-3.76254e-08
7.37216e-07
-3.76954e-08
-3.76954e-08
7.2949e-07
-5.40442e-08
-3.78351e-08
7.14197e-07
-6.7645e-08
-3.78805e-08
6.91536e-07
-3.7745e-08
6.61359e-07
-7.78051e-08
6.8044e-08
-5.44867e-08
6.40131e-07
-7.81911e-08
5.42962e-08
-5.44106e-08
6.73198e-07
3.78351e-08
-5.42962e-08
6.97747e-07
1.94146e-08
-5.40442e-08
7.14197e-07
1.51501e-15
-5.39392e-08
7.22477e-07
-1.94146e-08
-5.39392e-08
7.22477e-07
-3.78351e-08
-5.40442e-08
7.14197e-07
-5.42962e-08
-5.42962e-08
6.97747e-07
-6.8044e-08
-5.44106e-08
6.73198e-07
-5.44867e-08
6.40131e-07
-7.81911e-08
6.82412e-08
-6.89245e-08
6.07757e-07
-7.80416e-08
5.44106e-08
-6.82412e-08
6.45555e-07
3.78805e-08
-6.8044e-08
6.73198e-07
1.94069e-08
-6.7645e-08
6.91536e-07
4.62223e-15
-6.75302e-08
7.00722e-07
-1.94069e-08
-6.75302e-08
7.00722e-07
-3.78805e-08
-6.7645e-08
6.91536e-07
-5.44106e-08
-6.8044e-08
6.73198e-07
-6.82412e-08
-6.82412e-08
6.45555e-07
-6.89244e-08
6.07757e-07
-7.80416e-08
6.89245e-08
5.63134e-07
-7.92002e-08
-7.92002e-08
5.44867e-08
6.07757e-07
-7.80416e-08
3.7745e-08
6.40131e-07
-7.81911e-08
1.9254e-08
6.61359e-07
-7.78051e-08
2.78153e-15
6.71936e-07
-7.78187e-08
-1.9254e-08
6.71936e-07
-7.78187e-08
-3.7745e-08
6.61359e-07
-7.78051e-08
-5.44867e-08
6.40131e-07
-7.81911e-08
-6.89244e-08
6.07757e-07
-7.80416e-08
5.63134e-07
-7.92002e-08
-7.92002e-08
3.76817e-08
3.76817e-08
5.6704e-07
-3.96346e-08
-3.96346e-08
3.15309e-08
3.94371e-08
6.15704e-07
-4.12333e-08
2.25804e-08
4.05284e-08
6.51125e-07
-4.25719e-08
1.17336e-08
4.10054e-08
6.74433e-07
-4.32321e-08
2.2586e-16
4.12331e-08
6.86052e-07
-4.36153e-08
-1.17336e-08
4.12331e-08
6.86052e-07
-4.36153e-08
-2.25804e-08
4.10054e-08
6.74433e-07
-4.32321e-08
-3.15309e-08
4.05284e-08
6.51125e-07
-4.25719e-08
-3.76817e-08
3.94371e-08
6.15704e-07
-4.12333e-08
3.76817e-08
5.6704e-07
-3.96346e-08
-3.96346e-08
3.94371e-08
3.15309e-08
6.15704e-07
-4.12333e-08
3.32149e-08
3.32149e-08
6.58e-07
2.38601e-08
3.40886e-08
6.88993e-07
1.24284e-08
3.44208e-08
7.09552e-07
-1.54701e-15
3.45487e-08
7.19835e-07
-1.24284e-08
3.45487e-08
7.19835e-07
-2.38601e-08
3.44208e-08
7.09552e-07
-3.32149e-08
3.40886e-08
6.88993e-07
-3.94371e-08
3.32149e-08
6.58e-07
3.15309e-08
6.15704e-07
-4.12333e-08
4.05284e-08
2.25804e-08
6.51125e-07
-4.25719e-08
3.40886e-08
2.38601e-08
6.88993e-07
2.44589e-08
2.44589e-08
7.17006e-07
1.27343e-08
2.4659e-08
7.35683e-07
4.37769e-16
2.47187e-08
7.45041e-07
-1.27343e-08
2.47187e-08
7.45041e-07
-2.44589e-08
2.4659e-08
7.35683e-07
-3.40886e-08
2.44589e-08
7.17006e-07
-4.05284e-08
2.38601e-08
6.88993e-07
2.25804e-08
6.51125e-07
-4.25719e-08
4.10054e-08
1.17336e-08
6.74433e-07
-4.32321e-08
3.44208e-08
1.24284e-08
7.09552e-07
2.4659e-08
1.27343e-08
7.35683e-07
1.28286e-08
1.28286e-08
7.53151e-07
1.98121e-15
1.28512e-08
7.61912e-07
-1.28286e-08
1.28512e-08
7.61912e-07
-2.4659e-08
1.28286e-08
7.53151e-07
-3.44208e-08
1.27343e-08
7.35683e-07
-4.10054e-08
1.24284e-08
7.09552e-07
1.17336e-08
6.74433e-07
-4.32321e-08
4.12331e-08
-1.99688e-15
6.86052e-07
-4.36153e-08
3.45487e-08
-3.42771e-16
7.19835e-07
2.47187e-08
2.58367e-15
7.45041e-07
1.28512e-08
3.42298e-15
7.61912e-07
1.9309e-15
2.76789e-15
7.70378e-07
-1.28512e-08
1.4221e-15
7.70378e-07
-2.47187e-08
4.66299e-16
7.61912e-07
-3.45487e-08
1.20327e-15
7.45041e-07
-4.12331e-08
3.76133e-15
7.19835e-07
3.44822e-15
6.86052e-07
-4.36153e-08
4.12331e-08
-1.17336e-08
6.86052e-07
-4.36153e-08
3.45487e-08
-1.24284e-08
7.19835e-07
2.47187e-08
-1.27343e-08
7.45041e-07
1.28512e-08
-1.28286e-08
7.61912e-07
2.43926e-16
-1.28512e-08
7.70378e-07
-1.28512e-08
-1.28512e-08
7.70378e-07
-2.47187e-08
-1.28286e-08
7.61912e-07
-3.45487e-08
-1.27343e-08
7.45041e-07
-4.12331e-08
-1.24284e-08
7.19835e-07
-1.17336e-08
6.86052e-07
-4.36153e-08
4.10054e-08
-2.25804e-08
6.74433e-07
-4.32321e-08
3.44208e-08
-2.38601e-08
7.09552e-07
2.4659e-08
-2.44589e-08
7.35683e-07
1.28286e-08
-2.4659e-08
7.53151e-07
-9.54842e-16
-2.47187e-08
7.61912e-07
-1.28286e-08
-2.47187e-08
7.61912e-07
-2.4659e-08
-2.4659e-08
7.53151e-07
-3.44208e-08
-2.44589e-08
7.35683e-07
-4.10054e-08
-2.38601e-08
7.09552e-07
-2.25804e-08
6.74433e-07
-4.32321e-08
4.05284e-08
-3.15309e-08
6.51125e-07
-4.25719e-08
3.40886e-08
-3.32149e-08
6.88993e-07
2.44589e-08
-3.40886e-08
7.17006e-07
1.27343e-08
-3.44208e-08
7.35683e-07
3.51437e-16
-3.45487e-08
7.45041e-07
-1.27343e-08
-3.45487e-08
7.45041e-07
-2.44589e-08
-3.44208e-08
7.35683e-07
-3.40886e-08
-3.40886e-08
7.17006e-07
-4.05284e-08
-3.32149e-08
6.88993e-07
-3.15309e-08
6.51125e-07
-4.25719e-08
3.94371e-08
-3.76817e-08
6.15704e-07
-4.12333e-08
3.32149e-08
-3.94371e-08
6.58e-07
2.38601e-08
-4.05284e-08
6.88993e-07
1.24284e-08
-4.10054e-08
7.09552e-07
3.52347e-15
-4.12331e-08
7.19835e-07
-1.24284e-08
-4.12331e-08
7.19835e-07
-2.38601e-08
-4.10054e-08
7.09552e-07
-3.32149e-08
-4.05284e-08
6.88993e-07
-3.94371e-08
-3.94371e-08
6.58e-07
-3.76817e-08
6.15704e-07
-4.12333e-08
3.76817e-08
5.6704e-07
-3.96346e-08
-3.96346e-08
3.15309e-08
6.15704e-07
-4.12333e-08
2.25804e-08
6.51125e-07
-4.25719e-08
1.17336e-08
6.74433e-07
-4.32321e-08
2.5985e-15
6.86052e-07
-4.36153e-08
-1.17336e-08
6.86052e-07
-4.36153e-08
-2.25804e-08
6.74433e-07
-4.32321e-08
-3.15309e-08
6.51125e-07
-4.25719e-08
-3.76817e-08
6.15704e-07
-4.12333e-08
5.6704e-07
-3.96346e-08
-3.96346e-08
1.28497e-08
1.28497e-08
5.66247e-07
-1.24533e-08
-1.24533e-08
1.15191e-08
1.48223e-08
6.16465e-07
-1.42532e-08
8.61312e-09
1.61809e-08
6.53345e-07
-1.54948e-08
4.5894e-09
1.698e-08
6.77756e-07
-1.62801e-08
1.20861e-15
1.73743e-08
6.89959e-07
-1.66915e-08
-4.5894e-09
1.73743e-08
6.89959e-07
-1.66915e-08
-8.61312e-09
1.698e-08
6.77756e-07
-1.62801e-08
-1.15191e-08
1.61809e-08
6.53345e-07
-1.54948e-08
-1.28497e-08
1.48223e-08
6.16465e-07
-1.42533e-08
1.28497e-08
5.66247e-07
-1.24533e-08
-1.24533e-08
1.48223e-08
1.15191e-08
6.16465e-07
-1.42532e-08
1.3303e-08
1.3303e-08
6.61038e-07
9.96891e-09
1.4505e-08
6.94003e-07
5.32005e-09
1.51999e-08
7.15981e-07
3.63108e-16
1.55304e-08
7.26999e-07
-5.32005e-09
1.55304e-08
7.26999e-07
-9.96891e-09
1.51999e-08
7.15981e-07
-1.3303e-08
1.45049e-08
6.94003e-07
-1.48223e-08
1.3303e-08
6.61038e-07
1.15191e-08
6.16465e-07
-1.42532e-08
1.61809e-08
8.61312e-09
6.53345e-07
-1.54948e-08
1.4505e-08
9.96891e-09
6.94003e-07
1.08526e-08
1.08526e-08
7.24311e-07
5.78748e-09
1.13563e-08
7.44592e-07
1.79031e-15
1.159e-08
7.54769e-07
-5.78748e-09
1.159e-08
7.54769e-07
-1.08525e-08
1.13563e-08
7.44592e-07
-1.4505e-08
1.08525e-08
7.24311e-07
-1.61809e-08
9.96891e-09
6.94003e-07
8.61312e-09
6.53345e-07
-1.54948e-08
1.698e-08
4.5894e-09
6.77756e-07
-1.62801e-08
1.51999e-08
5.32005e-09
7.15981e-07
1.13563e-08
5.78748e-09
7.44592e-07
6.05165e-09
6.05165e-09
7.6376e-07
2.3772e-15
6.17252e-09
7.73381e-07
-6.05165e-09
6.17252e-09
7.73381e-07
-1.13563e-08
6.05165e-09
7.6376e-07
-1.51999e-08
5.78748e-09
7.44592e-07
-1.698e-08
5.32005e-09
7.15981e-07
4.5894e-09
6.77756e-07
-1.62801e-08
1.73743e-08
-4.84357e-16
6.89959e-07
-1.66915e-08
1.55304e-08
-5.94101e-16
7.26999e-07
1.159e-08
1.65227e-15
7.54769e-07
6.17252e-09
2.29529e-15
7.73381e-07
2.03038e-15
2.07101e-15
7.82723e-07
-6.17252e-09
1.22532e-15
7.82723e-07
-1.159e-08
5.93121e-16
7.73381e-07
-1.55304e-08
1.27121e-15
7.54769e-07
-1.73743e-08
3.56642e-15
7.26999e-07
3.74512e-15
6.89959e-07
-1.66915e-08
1.73743e-08
-4.5894e-09
6.89959e-07
-1.66915e-08
1.55304e-08
-5.32005e-09
7.26999e-07
1.159e-08
-5.78748e-09
7.54769e-07
6.17252e-09
-6.05165e-09
7.73381e-07
1.08951e-15
-6.17251e-09
7.82723e-07
-6.17252e-09
-6.17251e-09
7.82723e-07
-1.159e-08
-6.05165e-09
7.73381e-07
-1.55304e-08
-5.78748e-09
7.54769e-07
-1.73743e-08
-5.32005e-09
7.26999e-07
-4.58939e-09
6.89959e-07
-1.66915e-08
1.698e-08
-8.61312e-09
6.77756e-07
-1.62801e-08
1.51999e-08
-9.96891e-09
7.15981e-07
1.13563e-08
-1.08525e-08
7.44592e-07
6.05165e-09
-1.13563e-08
7.6376e-07
8.48864e-16
-1.159e-08
7.73381e-07
-6.05165e-09
-1.159e-08
7.73381e-07
-1.13563e-08
-1.13563e-08
7.6376e-07
-1.51999e-08
-1.08525e-08
7.44592e-07
-1.698e-08
-9.96891e-09
7.15981e-07
-8.61311e-09
6.77756e-07
-1.62801e-08
1.61809e-08
-1.15191e-08
6.53345e-07
-1.54948e-08
1.4505e-08
-1.3303e-08
6.94003e-07
1.08526e-08
-1.4505e-08
7.24311e-07
5.78748e-09
-1.51999e-08
7.44592e-07
1.63102e-15
-1.55304e-08
7.54769e-07
-5.78748e-09
-1.55304e-08
7.54769e-07
-1.08525e-08
-1.51999e-08
7.44592e-07
-1.4505e-08
-1.4505e-08
7.24311e-07
-1.61809e-08
-1.3303e-08
6.94003e-07
-1.15191e-08
6.53345e-07
-1.54948e-08
1.48223e-08
-1.28497e-08
6.16465e-07
-1.42532e-08
1.3303e-08
-1.48223e-08
6.61038e-07
9.96891e-09
-1.61809e-08
6.94003e-07
5.32005e-09
-1.698e-08
7.15981e-07
2.63546e-15
-1.73743e-08
7.26999e-07
-5.32004e-09
-1.73743e-08
7.26999e-07
-9.9689e-09
-1.698e-08
7.15981e-07
-1.3303e-08
-1.61809e-08
6.94003e-07
-1.48223e-08
-1.48223e-08
6.61038e-07
-1.28497e-08
6.16465e-07
-1.42532e-08
1.28497e-08
5.66247e-07
-1.24533e-08
-1.24533e-08
1.15191e-08
6.16465e-07
-1.42532e-08
8.61312e-09
6.53345e-07
-1.54948e-08
4.5894e-09
6.77756e-07
-1.62801e-08
1.4041e-15
6.89959e-07
-1.66915e-08
-4.58939e-09
6.89959e-07
-1.66915e-08
-8.61311e-09
6.77756e-07
-1.62801e-08
-1.15191e-08
6.53345e-07
-1.54948e-08
-1.28497e-08
6.16465e-07
-1.42532e-08
5.66247e-07
-1.24533e-08
-1.24533e-08
4.25819e-09
4.2582e-09
5.65638e-07
-3.95335e-09
-3.95335e-09
3.93001e-09
5.10906e-09
6.16357e-07
-4.67221e-09
2.99237e-09
5.72972e-09
6.53735e-07
-5.18198e-09
1.61142e-09
6.12576e-09
6.78538e-07
-5.52661e-09
-7.64903e-16
6.32689e-09
6.90951e-07
-5.70788e-09
-1.61142e-09
6.32689e-09
6.90951e-07
-5.70788e-09
-2.99237e-09
6.12576e-09
6.78538e-07
-5.52661e-09
-3.93001e-09
5.72971e-09
6.53735e-07
-5.18198e-09
-4.2582e-09
5.10906e-09
6.16357e-07
-4.6722e-09
4.25819e-09
5.65638e-07
-3.95334e-09
-3.95335e-09
5.10906e-09
3.93001e-09
6.16357e-07
-4.67221e-09
4.7466e-09
4.7466e-09
6.61763e-07
3.63879e-09
5.34393e-09
6.95496e-07
1.96781e-09
5.7218e-09
7.18056e-07
-6.68506e-17
5.90999e-09
7.29384e-07
-1.96781e-09
5.90999e-09
7.29384e-07
-3.63879e-09
5.72181e-09
7.18056e-07
-4.74661e-09
5.34393e-09
6.95496e-07
-5.10907e-09
4.7466e-09
6.61763e-07
3.93e-09
6.16357e-07
-4.67221e-09
5.72972e-09
2.99237e-09
6.53735e-07
-5.18198e-09
5.34393e-09
3.63879e-09
6.95496e-07
4.10511e-09
4.10511e-09
7.26789e-07
2.22291e-09
4.39876e-09
7.47797e-07
1.03663e-15
4.54314e-09
7.58359e-07
-2.22291e-09
4.54314e-09
7.58359e-07
-4.10511e-09
4.39876e-09
7.47797e-07
-5.34393e-09
4.10511e-09
7.26789e-07
-5.72972e-09
3.63878e-09
6.95496e-07
2.99236e-09
6.53735e-07
-5.18198e-09
6.12576e-09
1.61142e-09
6.78538e-07
-5.52661e-09
5.7218e-09
1.96781e-09
7.18056e-07
4.39876e-09
2.22292e-09
7.47797e-07
2.3833e-09
2.38331e-09
7.67791e-07
1.66666e-15
2.46164e-09
7.77846e-07
-2.3833e-09
2.46164e-09
7.77846e-07
-4.39875e-09
2.3833e-09
7.67791e-07
-5.7218e-09
2.22291e-09
7.47797e-07
-6.12576e-09
1.96781e-09
7.18056e-07
1.61142e-09
6.78538e-07
-5.52661e-09
6.32689e-09
-9.29289e-16
6.90951e-07
-5.70788e-09
5.90999e-09
1.83777e-15
7.29384e-07
4.54314e-09
2.62814e-15
7.58359e-07
2.46164e-09
2.71843e-15
7.77846e-07
1.49172e-15
2.32565e-15
7.87646e-07
-2.46164e-09
1.69819e-15
7.87646e-07
-4.54314e-09
1.0647e-15
7.77846e-07
-5.90998e-09
3.54502e-16
7.58359e-07
-6.32689e-09
1.05282e-16
7.29384e-07
8.43403e-16
6.90951e-07
-5.70788e-09
6.32689e-09
-1.61142e-09
6.90951e-07
-5.70788e-09
5.90999e-09
-1.96781e-09
7.29384e-07
4.54314e-09
-2.22291e-09
7.58359e-07
2.46164e-09
-2.3833e-09
7.77846e-07
8.87712e-16
-2.46163e-09
7.87646e-07
-2.46164e-09
-2.46164e-09
7.87646e-07
-4.54314e-09
-2.3833e-09
7.77846e-07
-5.90998e-09
-2.22291e-09
7.58359e-07
-6.32689e-09
-1.96781e-09
7.29384e-07
-1.61141e-09
6.90951e-07
-5.70788e-09
6.12576e-09
-2.99237e-09
6.78538e-07
-5.52661e-09
5.7218e-09
-3.63878e-09
7.18056e-07
4.39875e-09
-4.10511e-09
7.47797e-07
2.3833e-09
-4.39875e-09
7.67791e-07
-1.46096e-16
-4.54314e-09
7.77846e-07
-2.3833e-09
-4.54314e-09
7.77846e-07
-4.39876e-09
-4.39875e-09
7.67791e-07
-5.7218e-09
-4.10511e-09
7.47797e-07
-6.12576e-09
-3.63879e-09
7.18056e-07
-2.99236e-09
6.78538e-07
-5.52661e-09
5.72971e-09
-3.93001e-09
6.53735e-07
-5.18197e-09
5.34393e-09
-4.7466e-09
6.95496e-07
4.10511e-09
-5.34393e-09
7.26789e-07
2.22291e-09
-5.7218e-09
7.47797e-07
-8.33791e-16
-5.90998e-09
7.58359e-07
-2.22291e-09
-5.90998e-09
7.58359e-07
-4.10511e-09
-5.7218e-09
7.47797e-07
-5.34393e-09
-5.34393e-09
7.26789e-07
-5.72972e-09
-4.7466e-09
6.95496e-07
-3.93001e-09
6.53735e-07
-5.18197e-09
5.10907e-09
-4.25819e-09
6.16357e-07
-4.67221e-09
4.74661e-09
-5.10906e-09
6.61763e-07
3.63879e-09
-5.72971e-09
6.95496e-07
1.96781e-09
-6.12576e-09
7.18056e-07
-1.37225e-16
-6.32689e-09
7.29384e-07
-1.96781e-09
-6.32689e-09
7.29384e-07
-3.63879e-09
-6.12576e-09
7.18056e-07
-4.74661e-09
-5.72971e-09
6.95496e-07
-5.10906e-09
-5.10906e-09
6.61763e-07
-4.25819e-09
6.16357e-07
-4.6722e-09
4.25819e-09
5.65638e-07
-3.95335e-09
-3.95335e-09
3.93001e-09
6.16357e-07
-4.6722e-09
2.99237e-09
6.53735e-07
-5.18197e-09
1.61142e-09
6.78538e-07
-5.52661e-09
1.9473e-15
6.90951e-07
-5.70788e-09
-1.61141e-09
6.90951e-07
-5.70788e-09
-2.99236e-09
6.78538e-07
-5.52661e-09
-3.93e-09
6.53735e-07
-5.18197e-09
-4.25819e-09
6.16357e-07
-4.6722e-09
5.65638e-07
-3.95334e-09
-3.95334e-09
1.45886e-09
1.45886e-09
5.65321e-07
-1.30028e-09
-1.30028e-09
1.38054e-09
1.79984e-09
6.16214e-07
-1.57848e-09
1.06771e-09
2.05196e-09
6.53775e-07
-1.77916e-09
5.80121e-10
2.217e-09
6.78726e-07
-1.91748e-09
-3.0578e-16
2.30109e-09
6.9122e-07
-1.9895e-09
-5.8012e-10
2.30109e-09
6.9122e-07
-1.9895e-09
-1.06771e-09
2.21699e-09
6.78726e-07
-1.91747e-09
-1.38054e-09
2.05196e-09
6.53775e-07
-1.77916e-09
-1.45886e-09
1.79985e-09
6.16214e-07
-1.57849e-09
1.45886e-09
5.65321e-07
-1.30028e-09
-1.30028e-09
1.79984e-09
1.38054e-09
6.16214e-07
-1.57848e-09
1.71516e-09
1.71517e-09
6.61932e-07
1.33557e-09
1.96496e-09
6.95963e-07
7.28643e-10
2.12739e-09
7.18753e-07
-1.98673e-16
2.2092e-09
7.30204e-07
-7.28645e-10
2.2092e-09
7.30204e-07
-1.33557e-09
2.12738e-09
7.18753e-07
-1.71517e-09
1.96495e-09
6.95963e-07
-1.79984e-09
1.71517e-09
6.61932e-07
1.38054e-09
6.16214e-07
-1.57848e-09
2.05196e-09
1.06771e-09
6.53775e-07
-1.77916e-09
1.96496e-09
1.33557e-09
6.95963e-07
1.53485e-09
1.53485e-09
7.27649e-07
8.38989e-10
1.66426e-09
7.48956e-07
1.47327e-15
1.72894e-09
7.59678e-07
-8.38986e-10
1.72894e-09
7.59678e-07
-1.53485e-09
1.66426e-09
7.48956e-07
-1.96496e-09
1.53485e-09
7.27649e-07
-2.05196e-09
1.33558e-09
6.95963e-07
1.06771e-09
6.53775e-07
-1.77916e-09
2.217e-09
5.8012e-10
6.78726e-07
-1.91748e-09
2.12739e-09
7.28645e-10
7.18753e-07
1.66427e-09
8.38989e-10
7.48956e-07
9.10744e-10
9.10743e-10
7.69298e-07
2.16349e-15
9.46478e-10
7.79539e-07
-9.1074e-10
9.46478e-10
7.79539e-07
-1.66426e-09
9.10742e-10
7.69298e-07
-2.12739e-09
8.38988e-10
7.48956e-07
-2.217e-09
7.28647e-10
7.18753e-07
5.8012e-10
6.78726e-07
-1.91748e-09
2.30109e-09
-1.14978e-15
6.9122e-07
-1.9895e-09
2.2092e-09
-1.38319e-16
7.30204e-07
1.72895e-09
6.44565e-16
7.59678e-07
9.46479e-10
1.75113e-15
7.79539e-07
2.26023e-15
2.13569e-15
7.89539e-07
-9.46475e-10
2.05989e-15
7.89539e-07
-1.72894e-09
1.75747e-15
7.79539e-07
-2.2092e-09
2.14037e-15
7.59678e-07
-2.30109e-09
2.05069e-15
7.30204e-07
-3.8723e-16
6.9122e-07
-1.9895e-09
2.30109e-09
-5.80122e-10
6.9122e-07
-1.9895e-09
2.2092e-09
-7.28646e-10
7.30204e-07
1.72894e-09
-8.38989e-10
7.59678e-07
9.46478e-10
-9.1074e-10
7.79539e-07
2.29543e-15
-9.46475e-10
7.89539e-07
-9.46474e-10
-9.46474e-10
7.89539e-07
-1.72894e-09
-9.10738e-10
7.79539e-07
-2.2092e-09
-8.38985e-10
7.59678e-07
-2.30109e-09
-7.28642e-10
7.30204e-07
-5.80119e-10
6.9122e-07
-1.9895e-09
2.217e-09
-1.06772e-09
6.78726e-07
-1.91747e-09
2.12739e-09
-1.33558e-09
7.18753e-07
1.66426e-09
-1.53485e-09
7.48956e-07
9.10743e-10
-1.66426e-09
7.69298e-07
1.93206e-15
-1.72894e-09
7.79539e-07
-9.10739e-10
-1.72894e-09
7.79539e-07
-1.66426e-09
-1.66426e-09
7.69298e-07
-2.12738e-09
-1.53485e-09
7.48956e-07
-2.21699e-09
-1.33557e-09
7.18753e-07
-1.06771e-09
6.78726e-07
-1.91747e-09
2.05196e-09
-1.38054e-09
6.53775e-07
-1.77916e-09
1.96496e-09
-1.71517e-09
6.95963e-07
1.53485e-09
-1.96496e-09
7.27649e-07
8.3899e-10
-2.12738e-09
7.48956e-07
2.53682e-15
-2.2092e-09
7.59678e-07
-8.38985e-10
-2.2092e-09
7.59678e-07
-1.53485e-09
-2.12738e-09
7.48956e-07
-1.96495e-09
-1.96495e-09
7.27649e-07
-2.05196e-09
-1.71517e-09
6.95963e-07
-1.38054e-09
6.53775e-07
-1.77916e-09
1.79984e-09
-1.45886e-09
6.16214e-07
-1.57849e-09
1.71517e-09
-1.79985e-09
6.61932e-07
1.33558e-09
-2.05197e-09
6.95963e-07
7.28648e-10
-2.217e-09
7.18753e-07
3.18113e-15
-2.30109e-09
7.30204e-07
-7.28639e-10
-2.30109e-09
7.30204e-07
-1.33557e-09
-2.21699e-09
7.18753e-07
-1.71516e-09
-2.05196e-09
6.95963e-07
-1.79984e-09
-1.79984e-09
6.61932e-07
-1.45886e-09
6.16214e-07
-1.57848e-09
1.45886e-09
5.65321e-07
-1.30028e-09
-1.30028e-09
1.38054e-09
6.16214e-07
-1.57849e-09
1.06771e-09
6.53775e-07
-1.77916e-09
5.80119e-10
6.78726e-07
-1.91748e-09
-1.97172e-16
6.9122e-07
-1.9895e-09
-5.80117e-10
6.9122e-07
-1.9895e-09
-1.0677e-09
6.78726e-07
-1.91747e-09
-1.38053e-09
6.53775e-07
-1.77916e-09
-1.45885e-09
6.16214e-07
-1.57848e-09
5.65321e-07
-1.30028e-09
-1.30028e-09
4.7813e-10
4.78132e-10
5.65191e-07
-4.13468e-10
-4.13468e-10
4.64504e-10
6.12039e-10
6.16135e-07
-5.19764e-10
3.65162e-10
7.1337e-10
6.53757e-07
-5.96092e-10
2.00404e-10
7.81593e-10
6.7876e-07
-6.5071e-10
-1.94923e-16
8.16624e-10
6.91282e-07
-6.78997e-10
-2.00405e-10
8.16625e-10
6.91282e-07
-6.78997e-10
-3.65165e-10
7.81593e-10
6.7876e-07
-6.50708e-10
-4.64504e-10
7.13363e-10
6.53757e-07
-5.96089e-10
-4.78126e-10
6.12033e-10
6.16135e-07
-5.19762e-10
4.78126e-10
5.65191e-07
-4.13464e-10
-4.13465e-10
6.12041e-10
4.64506e-10
6.16135e-07
-5.19765e-10
5.98071e-10
5.98068e-10
6.6196e-07
4.73559e-10
7.01153e-10
6.961e-07
2.60883e-10
7.70159e-10
7.18977e-07
1.97677e-15
8.05323e-10
7.30477e-07
-2.60879e-10
8.05323e-10
7.30477e-07
-4.73554e-10
7.70159e-10
7.18977e-07
-5.98067e-10
7.0115e-10
6.961e-07
-6.12037e-10
5.98064e-10
6.6196e-07
4.64499e-10
6.16135e-07
-5.19762e-10
7.13376e-10
3.65161e-10
6.53757e-07
-5.96094e-10
7.01157e-10
4.73557e-10
6.961e-07
5.57186e-10
5.57183e-10
7.27937e-07
3.07594e-10
6.13108e-10
7.49363e-07
2.29773e-15
6.41443e-10
7.6015e-07
-3.0759e-10
6.41442e-10
7.6015e-07
-5.57181e-10
6.13107e-10
7.49363e-07
-7.01153e-10
5.57182e-10
7.27937e-07
-7.13369e-10
4.73554e-10
6.961e-07
3.65156e-10
6.53757e-07
-5.96091e-10
7.81597e-10
2.00401e-10
6.7876e-07
-6.50711e-10
7.70161e-10
2.60883e-10
7.18977e-07
6.13109e-10
3.07594e-10
7.49363e-07
3.38878e-10
3.38878e-10
7.69847e-07
1.95495e-15
3.54688e-10
7.80165e-07
-3.38874e-10
3.54688e-10
7.80165e-07
-6.13105e-10
3.38877e-10
7.69847e-07
-7.70158e-10
3.07592e-10
7.49363e-07
-7.81592e-10
2.6088e-10
7.18977e-07
2.00399e-10
6.7876e-07
-6.5071e-10
8.16624e-10
-1.24054e-15
6.91282e-07
-6.78999e-10
8.05322e-10
2.47604e-15
7.30477e-07
6.41442e-10
2.91596e-15
7.6015e-07
3.54687e-10
2.8229e-15
7.80165e-07
1.79352e-15
2.64192e-15
7.90249e-07
-3.54683e-10
2.09104e-15
7.90249e-07
-6.41437e-10
1.21389e-15
7.80165e-07
-8.05318e-10
7.98958e-16
7.6015e-07
-8.16621e-10
1.84459e-16
7.30477e-07
8.93303e-16
6.91282e-07
-6.79e-10
8.16624e-10
-2.00405e-10
6.91282e-07
-6.78998e-10
8.05322e-10
-2.60878e-10
7.30477e-07
6.41441e-10
-3.07588e-10
7.6015e-07
3.54686e-10
-3.38872e-10
7.80165e-07
1.12146e-15
-3.54683e-10
7.90249e-07
-3.54684e-10
-3.54683e-10
7.90249e-07
-6.41438e-10
-3.38875e-10
7.80165e-07
-8.05319e-10
-3.07591e-10
7.6015e-07
-8.16621e-10
-2.60879e-10
7.30477e-07
-2.00396e-10
6.91282e-07
-6.79001e-10
7.81592e-10
-3.65164e-10
6.7876e-07
-6.50708e-10
7.70159e-10
-4.73554e-10
7.18977e-07
6.13107e-10
-5.57177e-10
7.49363e-07
3.38877e-10
-6.13103e-10
7.69847e-07
6.07733e-16
-6.41437e-10
7.80165e-07
-3.38875e-10
-6.41438e-10
7.80165e-07
-6.13105e-10
-6.13107e-10
7.69847e-07
-7.70156e-10
-5.57183e-10
7.49363e-07
-7.81592e-10
-4.73553e-10
7.18977e-07
-3.65151e-10
6.7876e-07
-6.5071e-10
7.13364e-10
-4.64504e-10
6.53757e-07
-5.96089e-10
7.01151e-10
-5.98066e-10
6.961e-07
5.57182e-10
-7.01148e-10
7.27937e-07
3.07592e-10
-7.70156e-10
7.49363e-07
4.8634e-16
-8.05317e-10
7.6015e-07
-3.0759e-10
-8.0532e-10
7.6015e-07
-5.5718e-10
-7.7016e-10
7.49363e-07
-7.0115e-10
-7.01154e-10
7.27937e-07
-7.13369e-10
-5.98062e-10
6.961e-07
-4.64495e-10
6.53757e-07
-5.96089e-10
6.12034e-10
-4.78128e-10
6.16135e-07
-5.19763e-10
5.98062e-10
-6.12034e-10
6.6196e-07
4.7355e-10
-7.13365e-10
6.961e-07
2.60876e-10
-7.81592e-10
7.18977e-07
-1.33379e-15
-8.16621e-10
7.30477e-07
-2.6088e-10
-8.16623e-10
7.30477e-07
-4.73556e-10
-7.81596e-10
7.18977e-07
-5.98067e-10
-7.13371e-10
6.961e-07
-6.12038e-10
-6.12032e-10
6.6196e-07
-4.78122e-10
6.16135e-07
-5.19761e-10
4.78126e-10
5.65191e-07
-4.13465e-10
-4.13465e-10
4.64498e-10
6.16135e-07
-5.1976e-10
3.65154e-10
6.53757e-07
-5.96088e-10
2.00399e-10
6.7876e-07
-6.5071e-10
2.53751e-16
6.91282e-07
-6.79e-10
-2.00401e-10
6.91282e-07
-6.79e-10
-3.65161e-10
6.7876e-07
-6.50711e-10
-4.64505e-10
6.53757e-07
-5.96091e-10
-4.78129e-10
6.16135e-07
-5.19759e-10
5.65191e-07
-4.13464e-10
-4.13463e-10
1.57056e-10
1.5705e-10
5.65145e-07
-1.33793e-10
-1.33794e-10
1.54836e-10
2.05538e-10
6.16103e-07
-1.71488e-10
1.22735e-10
2.42947e-10
6.53745e-07
-1.98281e-10
6.7734e-11
2.68815e-10
6.78765e-07
-2.18221e-10
-4.4615e-16
2.82224e-10
6.91296e-07
-2.28523e-10
-6.77347e-11
2.82222e-10
6.91296e-07
-2.28522e-10
-1.22734e-10
2.68812e-10
6.78765e-07
-2.18219e-10
-1.54834e-10
2.4295e-10
6.53745e-07
-1.98282e-10
-1.57059e-10
2.05546e-10
6.16103e-07
-1.71491e-10
1.57056e-10
5.65145e-07
-1.33797e-10
-1.33797e-10
2.0554e-10
1.54827e-10
6.16103e-07
-1.71488e-10
2.04025e-10
2.04022e-10
6.61963e-07
1.63314e-10
2.43191e-10
6.9614e-07
9.0568e-11
2.70139e-10
7.19048e-07
-7.29509e-16
2.84058e-10
7.30565e-07
-9.05695e-11
2.84056e-10
7.30565e-07
-1.63318e-10
2.70137e-10
7.19048e-07
-2.04031e-10
2.43193e-10
6.9614e-07
-2.05547e-10
2.04029e-10
6.61963e-07
1.54831e-10
6.16103e-07
-1.7149e-10
2.42942e-10
1.22729e-10
6.53745e-07
-1.98279e-10
2.43184e-10
1.63314e-10
6.9614e-07
1.95722e-10
1.95727e-10
7.28032e-07
1.08869e-10
2.18025e-10
7.49501e-07
-3.26058e-17
2.29496e-10
7.60313e-07
-1.0887e-10
2.29495e-10
7.60313e-07
-1.95726e-10
2.18025e-10
7.49501e-07
-2.4319e-10
1.95729e-10
7.28032e-07
-2.42948e-10
1.63318e-10
6.9614e-07
1.2273e-10
6.53745e-07
-1.98281e-10
2.68808e-10
6.77326e-11
6.78765e-07
-2.18219e-10
2.70132e-10
9.05676e-11
7.19048e-07
2.18022e-10
1.08871e-10
7.49501e-07
1.2149e-10
1.21491e-10
7.7004e-07
8.78802e-16
1.27973e-10
7.80388e-07
-1.21489e-10
1.27973e-10
7.80388e-07
-2.18022e-10
1.21493e-10
7.7004e-07
-2.70134e-10
1.08873e-10
7.49501e-07
-2.6881e-10
9.05692e-11
7.19048e-07
6.77313e-11
6.78765e-07