/*--------------------------------*- C++ -*----------------------------------*\
| =========                 |                                                 |
| \\      /  F ield         | OpenFOAM: The Open Source CFD Toolbox           |
|  \\    /   O peration     | Version:  2412                                  |
|   \\  /    A nd           | Website:  www.openfoam.com                      |
|    \\/     M anipulation  |                                                 |
\*---------------------------------------------------------------------------*/
FoamFile
{
    version     2.0;
    format      ascii;
    arch        "LSB;label=32;scalar=64";
    class       volVectorField;
    location    "2.6";
    object      U;
}
// * * * * * * * * * * * * * * * * * * * * * * * * * * * * * * * * * * * * * //

dimensions      [0 1 -1 0 0 0 0];

internalField   nonuniform List<vector> 
15000
(
(0.00104788 0.00104788 0.0106289)
(0.000766347 0.000967861 0.0105843)
(0.000519513 0.000945403 0.0105377)
(0.000304622 0.000922338 0.0105026)
(9.98469e-05 0.000912174 0.0104847)
(-9.98469e-05 0.000912174 0.0104847)
(-0.000304622 0.000922338 0.0105026)
(-0.000519513 0.000945403 0.0105377)
(-0.000766347 0.000967861 0.0105843)
(-0.00104788 0.00104788 0.0106289)
(0.000967861 0.000766347 0.0105843)
(0.000718175 0.000718175 0.0105126)
(0.000491807 0.000687909 0.0104516)
(0.000287126 0.000666945 0.0104105)
(9.42008e-05 0.000657079 0.0103902)
(-9.42009e-05 0.000657079 0.0103902)
(-0.000287126 0.000666945 0.0104105)
(-0.000491807 0.000687909 0.0104516)
(-0.000718175 0.000718175 0.0105126)
(-0.000967861 0.000766347 0.0105843)
(0.000945403 0.000519513 0.0105377)
(0.000687909 0.000491807 0.0104516)
(0.000468308 0.000468308 0.0103859)
(0.000271992 0.000451438 0.0103434)
(8.90915e-05 0.000443077 0.0103228)
(-8.90915e-05 0.000443077 0.0103228)
(-0.000271992 0.000451438 0.0103434)
(-0.000468308 0.000468308 0.0103859)
(-0.000687909 0.000491807 0.0104516)
(-0.000945403 0.000519513 0.0105377)
(0.000922338 0.000304622 0.0105026)
(0.000666945 0.000287126 0.0104105)
(0.000451438 0.000271992 0.0103434)
(0.000261077 0.000261077 0.0103011)
(8.53753e-05 0.000255599 0.0102807)
(-8.53753e-05 0.000255599 0.0102807)
(-0.000261077 0.000261077 0.0103011)
(-0.000451438 0.000271992 0.0103434)
(-0.000666945 0.000287126 0.0104105)
(-0.000922338 0.000304622 0.0105026)
(0.000912174 9.98469e-05 0.0104847)
(0.000657079 9.42008e-05 0.0103902)
(0.000443077 8.90915e-05 0.0103228)
(0.000255599 8.53753e-05 0.0102807)
(8.35011e-05 8.35011e-05 0.0102605)
(-8.35011e-05 8.35011e-05 0.0102605)
(-0.000255599 8.53753e-05 0.0102807)
(-0.000443077 8.90915e-05 0.0103228)
(-0.000657079 9.42009e-05 0.0103902)
(-0.000912174 9.98469e-05 0.0104847)
(0.000912174 -9.98469e-05 0.0104847)
(0.000657079 -9.42009e-05 0.0103902)
(0.000443077 -8.90915e-05 0.0103228)
(0.000255599 -8.53753e-05 0.0102807)
(8.35011e-05 -8.35011e-05 0.0102605)
(-8.35011e-05 -8.35011e-05 0.0102605)
(-0.000255599 -8.53753e-05 0.0102807)
(-0.000443077 -8.90915e-05 0.0103228)
(-0.000657079 -9.42008e-05 0.0103902)
(-0.000912174 -9.98469e-05 0.0104847)
(0.000922338 -0.000304622 0.0105026)
(0.000666945 -0.000287126 0.0104105)
(0.000451438 -0.000271992 0.0103434)
(0.000261077 -0.000261077 0.0103011)
(8.53753e-05 -0.000255599 0.0102807)
(-8.53753e-05 -0.000255599 0.0102807)
(-0.000261077 -0.000261077 0.0103011)
(-0.000451438 -0.000271992 0.0103434)
(-0.000666945 -0.000287126 0.0104105)
(-0.000922338 -0.000304622 0.0105026)
(0.000945403 -0.000519513 0.0105377)
(0.000687909 -0.000491807 0.0104516)
(0.000468308 -0.000468308 0.0103859)
(0.000271992 -0.000451438 0.0103434)
(8.90915e-05 -0.000443077 0.0103228)
(-8.90915e-05 -0.000443077 0.0103228)
(-0.000271992 -0.000451438 0.0103434)
(-0.000468308 -0.000468308 0.0103859)
(-0.000687909 -0.000491808 0.0104516)
(-0.000945403 -0.000519513 0.0105377)
(0.000967861 -0.000766347 0.0105843)
(0.000718175 -0.000718175 0.0105126)
(0.000491807 -0.000687909 0.0104516)
(0.000287126 -0.000666945 0.0104105)
(9.42009e-05 -0.000657079 0.0103902)
(-9.42008e-05 -0.000657079 0.0103902)
(-0.000287126 -0.000666945 0.0104105)
(-0.000491808 -0.000687909 0.0104516)
(-0.000718175 -0.000718175 0.0105126)
(-0.000967861 -0.000766347 0.0105843)
(0.00104788 -0.00104788 0.0106289)
(0.000766347 -0.000967861 0.0105843)
(0.000519513 -0.000945403 0.0105377)
(0.000304622 -0.000922338 0.0105026)
(9.98469e-05 -0.000912174 0.0104847)
(-9.98469e-05 -0.000912174 0.0104847)
(-0.000304622 -0.000922338 0.0105026)
(-0.000519513 -0.000945403 0.0105377)
(-0.000766347 -0.000967861 0.0105843)
(-0.00104788 -0.00104788 0.0106289)
(0.000428242 0.000428242 0.0121577)
(0.000343025 0.000453123 0.0120393)
(0.000246935 0.000477293 0.0119256)
(0.000150105 0.000491064 0.0118424)
(4.9982e-05 0.000498989 0.0118002)
(-4.9982e-05 0.000498989 0.0118002)
(-0.000150105 0.000491064 0.0118424)
(-0.000246935 0.000477293 0.0119256)
(-0.000343025 0.000453123 0.0120393)
(-0.000428242 0.000428242 0.0121577)
(0.000453123 0.000343025 0.0120393)
(0.000365007 0.000365007 0.0118618)
(0.000265899 0.000382774 0.0117159)
(0.000161889 0.00039386 0.0116178)
(5.42228e-05 0.000399881 0.0115693)
(-5.42229e-05 0.000399881 0.0115693)
(-0.000161889 0.00039386 0.0116178)
(-0.000265899 0.000382774 0.0117159)
(-0.000365007 0.000365007 0.0118618)
(-0.000453123 0.000343025 0.0120393)
(0.000477293 0.000246935 0.0119256)
(0.000382774 0.000265899 0.0117159)
(0.000279641 0.000279641 0.011557)
(0.000170338 0.000288154 0.0114537)
(5.71639e-05 0.000292534 0.0114033)
(-5.71639e-05 0.000292534 0.0114033)
(-0.000170338 0.000288154 0.0114537)
(-0.000279641 0.000279641 0.011557)
(-0.000382774 0.000265899 0.0117159)
(-0.000477293 0.000246935 0.0119256)
(0.000491064 0.000150105 0.0118424)
(0.00039386 0.000161889 0.0116178)
(0.000288154 0.000170338 0.0114537)
(0.00017565 0.00017565 0.0113488)
(5.90045e-05 0.000178346 0.0112979)
(-5.90045e-05 0.000178346 0.0112979)
(-0.00017565 0.00017565 0.0113488)
(-0.000288154 0.000170338 0.0114537)
(-0.00039386 0.000161889 0.0116178)
(-0.000491064 0.000150105 0.0118424)
(0.000498989 4.9982e-05 0.0118002)
(0.000399881 5.42228e-05 0.0115693)
(0.000292534 5.71639e-05 0.0114033)
(0.000178346 5.90045e-05 0.0112979)
(5.99281e-05 5.99281e-05 0.0112469)
(-5.99281e-05 5.99281e-05 0.0112469)
(-0.000178346 5.90045e-05 0.0112979)
(-0.000292534 5.71639e-05 0.0114033)
(-0.000399881 5.42229e-05 0.0115693)
(-0.000498989 4.99821e-05 0.0118002)
(0.000498989 -4.9982e-05 0.0118002)
(0.000399881 -5.42229e-05 0.0115693)
(0.000292534 -5.71639e-05 0.0114033)
(0.000178346 -5.90044e-05 0.0112979)
(5.99281e-05 -5.99281e-05 0.0112469)
(-5.99281e-05 -5.99281e-05 0.0112469)
(-0.000178346 -5.90045e-05 0.0112979)
(-0.000292534 -5.71639e-05 0.0114033)
(-0.000399881 -5.42228e-05 0.0115693)
(-0.000498989 -4.9982e-05 0.0118002)
(0.000491064 -0.000150105 0.0118424)
(0.00039386 -0.000161889 0.0116178)
(0.000288154 -0.000170338 0.0114537)
(0.00017565 -0.00017565 0.0113488)
(5.90045e-05 -0.000178346 0.0112979)
(-5.90045e-05 -0.000178346 0.0112979)
(-0.00017565 -0.00017565 0.0113488)
(-0.000288154 -0.000170338 0.0114537)
(-0.00039386 -0.000161889 0.0116178)
(-0.000491064 -0.000150105 0.0118424)
(0.000477293 -0.000246935 0.0119256)
(0.000382774 -0.000265899 0.0117159)
(0.000279641 -0.000279641 0.011557)
(0.000170338 -0.000288154 0.0114537)
(5.71639e-05 -0.000292534 0.0114033)
(-5.71639e-05 -0.000292534 0.0114033)
(-0.000170338 -0.000288154 0.0114537)
(-0.000279641 -0.000279641 0.011557)
(-0.000382774 -0.000265899 0.0117159)
(-0.000477293 -0.000246936 0.0119256)
(0.000453123 -0.000343025 0.0120393)
(0.000365007 -0.000365007 0.0118618)
(0.000265899 -0.000382774 0.0117159)
(0.000161889 -0.00039386 0.0116178)
(5.42229e-05 -0.000399881 0.0115693)
(-5.42228e-05 -0.000399881 0.0115693)
(-0.000161889 -0.00039386 0.0116178)
(-0.000265899 -0.000382774 0.0117159)
(-0.000365008 -0.000365008 0.0118618)
(-0.000453123 -0.000343025 0.0120393)
(0.000428242 -0.000428242 0.0121577)
(0.000343025 -0.000453123 0.0120393)
(0.000246935 -0.000477293 0.0119256)
(0.000150105 -0.000491064 0.0118424)
(4.99821e-05 -0.000498989 0.0118002)
(-4.9982e-05 -0.000498989 0.0118002)
(-0.000150105 -0.000491064 0.0118424)
(-0.000246936 -0.000477293 0.0119256)
(-0.000343025 -0.000453123 0.0120393)
(-0.000428242 -0.000428242 0.0121577)
(0.000231681 0.000231681 0.0120068)
(0.000194864 0.000256166 0.0120134)
(0.000147176 0.000276968 0.0119855)
(9.17676e-05 0.000289925 0.0119574)
(3.09615e-05 0.000296804 0.0119419)
(-3.09615e-05 0.000296804 0.0119419)
(-9.17676e-05 0.000289925 0.0119574)
(-0.000147176 0.000276968 0.0119855)
(-0.000194864 0.000256166 0.0120134)
(-0.000231681 0.000231681 0.0120068)
(0.000256166 0.000194864 0.0120134)
(0.00021896 0.00021896 0.0119624)
(0.000166327 0.000236413 0.0119049)
(0.000103697 0.000247238 0.0118629)
(3.5116e-05 0.000252736 0.0118415)
(-3.5116e-05 0.000252736 0.0118415)
(-0.000103697 0.000247238 0.0118629)
(-0.000166327 0.000236412 0.0119049)
(-0.000218959 0.00021896 0.0119624)
(-0.000256166 0.000194864 0.0120134)
(0.000276968 0.000147176 0.0119855)
(0.000236413 0.000166327 0.0119049)
(0.00017947 0.00017947 0.0118343)
(0.000111662 0.000187359 0.011786)
(3.78204e-05 0.000191197 0.0117619)
(-3.78204e-05 0.000191197 0.0117619)
(-0.000111662 0.000187359 0.011786)
(-0.00017947 0.00017947 0.0118343)
(-0.000236412 0.000166327 0.0119049)
(-0.000276968 0.000147176 0.0119855)
(0.000289925 9.17676e-05 0.0119574)
(0.000247238 0.000103697 0.0118629)
(0.000187359 0.000111662 0.011786)
(0.000116362 0.000116362 0.0117345)
(3.93955e-05 0.000118602 0.0117089)
(-3.93955e-05 0.000118603 0.0117089)
(-0.000116362 0.000116362 0.0117345)
(-0.000187359 0.000111662 0.011786)
(-0.000247238 0.000103697 0.0118629)
(-0.000289925 9.17676e-05 0.0119574)
(0.000296804 3.09615e-05 0.0119419)
(0.000252736 3.5116e-05 0.0118415)
(0.000191197 3.78204e-05 0.0117619)
(0.000118602 3.93955e-05 0.0117089)
(4.0138e-05 4.0138e-05 0.0116825)
(-4.0138e-05 4.0138e-05 0.0116825)
(-0.000118602 3.93955e-05 0.0117089)
(-0.000191197 3.78204e-05 0.0117619)
(-0.000252736 3.5116e-05 0.0118415)
(-0.000296804 3.09616e-05 0.0119419)
(0.000296804 -3.09616e-05 0.0119419)
(0.000252736 -3.5116e-05 0.0118415)
(0.000191197 -3.78204e-05 0.0117619)
(0.000118602 -3.93955e-05 0.0117089)
(4.0138e-05 -4.0138e-05 0.0116825)
(-4.0138e-05 -4.0138e-05 0.0116825)
(-0.000118602 -3.93955e-05 0.0117089)
(-0.000191197 -3.78204e-05 0.0117619)
(-0.000252736 -3.5116e-05 0.0118415)
(-0.000296804 -3.09615e-05 0.0119419)
(0.000289925 -9.17676e-05 0.0119574)
(0.000247238 -0.000103697 0.0118629)
(0.000187359 -0.000111662 0.011786)
(0.000116362 -0.000116362 0.0117345)
(3.93955e-05 -0.000118602 0.0117089)
(-3.93955e-05 -0.000118602 0.0117089)
(-0.000116362 -0.000116362 0.0117345)
(-0.000187359 -0.000111662 0.011786)
(-0.000247238 -0.000103697 0.0118629)
(-0.000289925 -9.17677e-05 0.0119574)
(0.000276968 -0.000147176 0.0119855)
(0.000236413 -0.000166327 0.0119049)
(0.00017947 -0.00017947 0.0118343)
(0.000111662 -0.000187359 0.011786)
(3.78204e-05 -0.000191197 0.0117619)
(-3.78204e-05 -0.000191197 0.0117619)
(-0.000111662 -0.000187359 0.011786)
(-0.00017947 -0.00017947 0.0118343)
(-0.000236413 -0.000166327 0.0119049)
(-0.000276968 -0.000147176 0.0119855)
(0.000256166 -0.000194864 0.0120134)
(0.00021896 -0.00021896 0.0119624)
(0.000166327 -0.000236413 0.0119049)
(0.000103697 -0.000247238 0.0118629)
(3.5116e-05 -0.000252736 0.0118415)
(-3.5116e-05 -0.000252736 0.0118415)
(-0.000103697 -0.000247238 0.0118629)
(-0.000166327 -0.000236413 0.0119049)
(-0.00021896 -0.00021896 0.0119624)
(-0.000256166 -0.000194864 0.0120134)
(0.000231681 -0.000231681 0.0120068)
(0.000194864 -0.000256166 0.0120134)
(0.000147176 -0.000276968 0.0119855)
(9.17676e-05 -0.000289925 0.0119574)
(3.09616e-05 -0.000296804 0.0119419)
(-3.09615e-05 -0.000296804 0.0119419)
(-9.17677e-05 -0.000289926 0.0119574)
(-0.000147176 -0.000276968 0.0119855)
(-0.000194864 -0.000256166 0.0120134)
(-0.000231681 -0.000231681 0.0120068)
(7.63129e-05 7.63129e-05 0.0120612)
(6.87563e-05 9.33313e-05 0.0121043)
(5.50967e-05 0.000106858 0.0121041)
(3.54665e-05 0.000115971 0.0120945)
(1.21471e-05 0.000120758 0.012088)
(-1.2147e-05 0.000120758 0.012088)
(-3.54665e-05 0.000115971 0.0120945)
(-5.50966e-05 0.000106858 0.0121041)
(-6.87563e-05 9.33313e-05 0.0121043)
(-7.63129e-05 7.63129e-05 0.0120612)
(9.33312e-05 6.87563e-05 0.0121043)
(8.55722e-05 8.55722e-05 0.0120974)
(6.85023e-05 9.83011e-05 0.0120723)
(4.40719e-05 0.000106699 0.0120511)
(1.51505e-05 0.000111002 0.0120399)
(-1.51505e-05 0.000111002 0.0120399)
(-4.40718e-05 0.000106699 0.0120511)
(-6.85023e-05 9.83011e-05 0.0120723)
(-8.55722e-05 8.55722e-05 0.0120974)
(-9.33312e-05 6.87562e-05 0.0121043)
(0.000106858 5.50967e-05 0.0121041)
(9.83011e-05 6.85023e-05 0.0120723)
(7.85753e-05 7.85753e-05 0.0120364)
(5.04454e-05 8.51287e-05 0.0120102)
(1.73461e-05 8.84206e-05 0.0119967)
(-1.73461e-05 8.84206e-05 0.0119967)
(-5.04453e-05 8.51287e-05 0.0120102)
(-7.85753e-05 7.85753e-05 0.0120364)
(-9.83011e-05 6.85023e-05 0.0120723)
(-0.000106858 5.50967e-05 0.0121041)
(0.000115971 3.54665e-05 0.0120945)
(0.000106699 4.40719e-05 0.0120511)
(8.51287e-05 5.04454e-05 0.0120102)
(5.45684e-05 5.45684e-05 0.0119814)
(1.8759e-05 5.66217e-05 0.0119668)
(-1.8759e-05 5.66217e-05 0.0119668)
(-5.45684e-05 5.45684e-05 0.0119814)
(-8.51287e-05 5.04454e-05 0.0120102)
(-0.000106699 4.40719e-05 0.0120511)
(-0.000115971 3.54665e-05 0.0120945)
(0.000120758 1.2147e-05 0.012088)
(0.000111002 1.51505e-05 0.0120399)
(8.84206e-05 1.73461e-05 0.0119967)
(5.66217e-05 1.8759e-05 0.0119668)
(1.94589e-05 1.94589e-05 0.0119516)
(-1.94589e-05 1.94589e-05 0.0119516)
(-5.66217e-05 1.8759e-05 0.0119668)
(-8.84206e-05 1.73461e-05 0.0119967)
(-0.000111002 1.51506e-05 0.0120399)
(-0.000120758 1.21471e-05 0.012088)
(0.000120758 -1.2147e-05 0.012088)
(0.000111002 -1.51505e-05 0.0120399)
(8.84206e-05 -1.73461e-05 0.0119967)
(5.66217e-05 -1.8759e-05 0.0119668)
(1.94589e-05 -1.94589e-05 0.0119516)
(-1.94589e-05 -1.94589e-05 0.0119516)
(-5.66217e-05 -1.8759e-05 0.0119668)
(-8.84205e-05 -1.73461e-05 0.0119967)
(-0.000111002 -1.51505e-05 0.0120399)
(-0.000120758 -1.2147e-05 0.012088)
(0.000115971 -3.54665e-05 0.0120945)
(0.000106699 -4.40719e-05 0.0120511)
(8.51287e-05 -5.04453e-05 0.0120102)
(5.45684e-05 -5.45684e-05 0.0119814)
(1.8759e-05 -5.66217e-05 0.0119668)
(-1.8759e-05 -5.66217e-05 0.0119668)
(-5.45684e-05 -5.45683e-05 0.0119814)
(-8.51286e-05 -5.04453e-05 0.0120102)
(-0.000106699 -4.40719e-05 0.0120511)
(-0.000115971 -3.54666e-05 0.0120945)
(0.000106858 -5.50967e-05 0.0121041)
(9.83011e-05 -6.85023e-05 0.0120723)
(7.85753e-05 -7.85753e-05 0.0120364)
(5.04454e-05 -8.51287e-05 0.0120102)
(1.73461e-05 -8.84205e-05 0.0119967)
(-1.73461e-05 -8.84205e-05 0.0119967)
(-5.04453e-05 -8.51286e-05 0.0120102)
(-7.85753e-05 -7.85753e-05 0.0120364)
(-9.83011e-05 -6.85023e-05 0.0120723)
(-0.000106858 -5.50968e-05 0.0121041)
(9.33313e-05 -6.87563e-05 0.0121043)
(8.55722e-05 -8.55722e-05 0.0120974)
(6.85023e-05 -9.83011e-05 0.0120723)
(4.40719e-05 -0.000106699 0.0120511)
(1.51506e-05 -0.000111002 0.0120399)
(-1.51505e-05 -0.000111002 0.0120399)
(-4.40719e-05 -0.000106699 0.0120511)
(-6.85023e-05 -9.83011e-05 0.0120723)
(-8.55723e-05 -8.55723e-05 0.0120974)
(-9.33313e-05 -6.87564e-05 0.0121043)
(7.63129e-05 -7.63129e-05 0.0120612)
(6.87563e-05 -9.33312e-05 0.0121043)
(5.50967e-05 -0.000106858 0.0121041)
(3.54665e-05 -0.000115971 0.0120945)
(1.21471e-05 -0.000120758 0.012088)
(-1.21471e-05 -0.000120758 0.012088)
(-3.54666e-05 -0.000115971 0.0120945)
(-5.50968e-05 -0.000106858 0.0121041)
(-6.87563e-05 -9.33313e-05 0.0121043)
(-7.63128e-05 -7.63128e-05 0.0120612)
(2.5073e-05 2.5073e-05 0.0120431)
(2.31409e-05 3.1686e-05 0.0121063)
(1.90699e-05 3.71094e-05 0.0121226)
(1.24379e-05 4.09619e-05 0.0121246)
(4.28793e-06 4.30174e-05 0.012124)
(-4.28794e-06 4.30174e-05 0.012124)
(-1.24379e-05 4.09618e-05 0.0121246)
(-1.90699e-05 3.71095e-05 0.0121226)
(-2.31409e-05 3.16861e-05 0.0121063)
(-2.50729e-05 2.5073e-05 0.0120431)
(3.1686e-05 2.31409e-05 0.0121063)
(3.01895e-05 3.01895e-05 0.0121254)
(2.48739e-05 3.57668e-05 0.0121209)
(1.62822e-05 3.96325e-05 0.0121138)
(5.64532e-06 4.16579e-05 0.0121096)
(-5.64532e-06 4.16579e-05 0.0121096)
(-1.62822e-05 3.96326e-05 0.0121138)
(-2.48739e-05 3.57668e-05 0.0121209)
(-3.01895e-05 3.01896e-05 0.0121254)
(-3.1686e-05 2.31409e-05 0.0121063)
(3.71094e-05 1.90699e-05 0.0121226)
(3.57668e-05 2.48739e-05 0.0121209)
(2.95379e-05 2.95379e-05 0.0121081)
(1.93522e-05 3.27493e-05 0.0120974)
(6.72109e-06 3.44104e-05 0.0120917)
(-6.72108e-06 3.44104e-05 0.0120917)
(-1.93522e-05 3.27493e-05 0.0120974)
(-2.95379e-05 2.95379e-05 0.0121081)
(-3.57668e-05 2.48739e-05 0.0121209)
(-3.71094e-05 1.90699e-05 0.0121226)
(4.09618e-05 1.24379e-05 0.0121246)
(3.96325e-05 1.62822e-05 0.0121138)
(3.27493e-05 1.93522e-05 0.0120974)
(2.14621e-05 2.14621e-05 0.0120849)
(7.45868e-06 2.25482e-05 0.0120784)
(-7.45866e-06 2.25482e-05 0.0120784)
(-2.14621e-05 2.14621e-05 0.0120849)
(-3.27492e-05 1.93522e-05 0.0120974)
(-3.96325e-05 1.62822e-05 0.0121138)
(-4.09618e-05 1.24379e-05 0.0121246)
(4.30174e-05 4.28793e-06 0.012124)
(4.16579e-05 5.64533e-06 0.0121096)
(3.44104e-05 6.7211e-06 0.0120917)
(2.25482e-05 7.45868e-06 0.0120784)
(7.83715e-06 7.83715e-06 0.0120714)
(-7.83713e-06 7.83715e-06 0.0120714)
(-2.25482e-05 7.45868e-06 0.0120784)
(-3.44104e-05 6.72109e-06 0.0120917)
(-4.16579e-05 5.64532e-06 0.0121096)
(-4.30174e-05 4.28794e-06 0.012124)
(4.30174e-05 -4.28794e-06 0.012124)
(4.16579e-05 -5.64531e-06 0.0121096)
(3.44104e-05 -6.72106e-06 0.0120917)
(2.25482e-05 -7.45865e-06 0.0120784)
(7.83714e-06 -7.83712e-06 0.0120714)
(-7.83713e-06 -7.83713e-06 0.0120714)
(-2.25482e-05 -7.45866e-06 0.0120784)
(-3.44104e-05 -6.72108e-06 0.0120917)
(-4.16579e-05 -5.64532e-06 0.0121096)
(-4.30174e-05 -4.28793e-06 0.012124)
(4.09619e-05 -1.24379e-05 0.0121246)
(3.96326e-05 -1.62821e-05 0.0121138)
(3.27493e-05 -1.93522e-05 0.0120974)
(2.14621e-05 -2.1462e-05 0.0120849)
(7.45867e-06 -2.25482e-05 0.0120784)
(-7.45867e-06 -2.25482e-05 0.0120784)
(-2.14621e-05 -2.14621e-05 0.0120849)
(-3.27492e-05 -1.93522e-05 0.0120974)
(-3.96325e-05 -1.62822e-05 0.0121138)
(-4.09618e-05 -1.24379e-05 0.0121246)
(3.71095e-05 -1.90699e-05 0.0121226)
(3.57669e-05 -2.48739e-05 0.0121209)
(2.95379e-05 -2.95379e-05 0.0121081)
(1.93522e-05 -3.27492e-05 0.0120974)
(6.72107e-06 -3.44104e-05 0.0120917)
(-6.72108e-06 -3.44104e-05 0.0120917)
(-1.93522e-05 -3.27492e-05 0.0120974)
(-2.95379e-05 -2.95379e-05 0.0121081)
(-3.57668e-05 -2.48739e-05 0.0121209)
(-3.71095e-05 -1.90699e-05 0.0121226)
(3.16861e-05 -2.31409e-05 0.0121063)
(3.01896e-05 -3.01896e-05 0.0121254)
(2.48739e-05 -3.57668e-05 0.0121209)
(1.62822e-05 -3.96326e-05 0.0121138)
(5.64532e-06 -4.16579e-05 0.0121096)
(-5.64532e-06 -4.16579e-05 0.0121096)
(-1.62822e-05 -3.96325e-05 0.0121138)
(-2.48739e-05 -3.57668e-05 0.0121209)
(-3.01896e-05 -3.01896e-05 0.0121254)
(-3.1686e-05 -2.31409e-05 0.0121063)
(2.5073e-05 -2.5073e-05 0.0120431)
(2.31409e-05 -3.16861e-05 0.0121063)
(1.90699e-05 -3.71095e-05 0.0121226)
(1.24379e-05 -4.09619e-05 0.0121246)
(4.28795e-06 -4.30174e-05 0.012124)
(-4.28793e-06 -4.30174e-05 0.012124)
(-1.24379e-05 -4.09619e-05 0.0121246)
(-1.907e-05 -3.71095e-05 0.0121226)
(-2.31409e-05 -3.1686e-05 0.0121063)
(-2.50729e-05 -2.50729e-05 0.0120431)
(8.50689e-06 8.50689e-06 0.0120297)
(8.03635e-06 1.10188e-05 0.0120986)
(6.78558e-06 1.30933e-05 0.0121204)
(4.47663e-06 1.45945e-05 0.0121264)
(1.55283e-06 1.53967e-05 0.012128)
(-1.55284e-06 1.53967e-05 0.012128)
(-4.47661e-06 1.45945e-05 0.0121264)
(-6.78555e-06 1.30933e-05 0.0121204)
(-8.03633e-06 1.10188e-05 0.0120986)
(-8.50687e-06 8.50688e-06 0.0120297)
(1.10189e-05 8.03635e-06 0.0120986)
(1.08064e-05 1.08064e-05 0.0121269)
(9.09419e-06 1.30304e-05 0.0121302)
(6.02553e-06 1.46035e-05 0.0121288)
(2.10166e-06 1.54337e-05 0.0121276)
(-2.10166e-06 1.54337e-05 0.0121276)
(-6.02552e-06 1.46036e-05 0.0121288)
(-9.09417e-06 1.30304e-05 0.0121302)
(-1.08063e-05 1.08063e-05 0.0121269)
(-1.10188e-05 8.03634e-06 0.0120986)
(1.30933e-05 6.78558e-06 0.0121204)
(1.30304e-05 9.09418e-06 0.0121302)
(1.09971e-05 1.09971e-05 0.0121273)
(7.30006e-06 1.23391e-05 0.0121236)
(2.55152e-06 1.30417e-05 0.0121215)
(-2.5515e-06 1.30417e-05 0.0121215)
(-7.30004e-06 1.23392e-05 0.0121236)
(-1.09971e-05 1.09971e-05 0.0121273)
(-1.30304e-05 9.09418e-06 0.0121302)
(-1.30933e-05 6.78556e-06 0.0121204)
(1.45945e-05 4.47664e-06 0.0121264)
(1.46035e-05 6.02553e-06 0.0121288)
(1.23391e-05 7.30005e-06 0.0121236)
(8.19858e-06 8.19857e-06 0.0121189)
(2.86838e-06 8.66764e-06 0.0121164)
(-2.86836e-06 8.66764e-06 0.0121164)
(-8.19856e-06 8.19858e-06 0.0121189)
(-1.23391e-05 7.30006e-06 0.0121236)
(-1.46035e-05 6.02554e-06 0.0121288)
(-1.45945e-05 4.47663e-06 0.0121264)
(1.53967e-05 1.55283e-06 0.012128)
(1.54337e-05 2.10167e-06 0.0121276)
(1.30417e-05 2.55152e-06 0.0121215)
(8.66765e-06 2.86838e-06 0.0121164)
(3.03347e-06 3.03347e-06 0.0121136)
(-3.03344e-06 3.03347e-06 0.0121136)
(-8.66762e-06 2.86838e-06 0.0121164)
(-1.30416e-05 2.55153e-06 0.0121215)
(-1.54337e-05 2.10168e-06 0.0121276)
(-1.53967e-05 1.55284e-06 0.012128)
(1.53967e-05 -1.55285e-06 0.012128)
(1.54337e-05 -2.10167e-06 0.0121276)
(1.30417e-05 -2.55151e-06 0.0121215)
(8.66765e-06 -2.86836e-06 0.0121164)
(3.03347e-06 -3.03344e-06 0.0121136)
(-3.03345e-06 -3.03345e-06 0.0121136)
(-8.66763e-06 -2.86836e-06 0.0121164)
(-1.30416e-05 -2.5515e-06 0.0121215)
(-1.54337e-05 -2.10165e-06 0.0121276)
(-1.53967e-05 -1.55285e-06 0.012128)
(1.45945e-05 -4.4766e-06 0.0121264)
(1.46035e-05 -6.02551e-06 0.0121288)
(1.23392e-05 -7.30004e-06 0.0121236)
(8.19859e-06 -8.19856e-06 0.0121189)
(2.86838e-06 -8.66762e-06 0.0121164)
(-2.86836e-06 -8.66762e-06 0.0121164)
(-8.19856e-06 -8.19855e-06 0.0121189)
(-1.23391e-05 -7.30002e-06 0.0121236)
(-1.46036e-05 -6.02553e-06 0.0121288)
(-1.45945e-05 -4.47665e-06 0.0121264)
(1.30933e-05 -6.78553e-06 0.0121204)
(1.30304e-05 -9.09414e-06 0.0121302)
(1.09971e-05 -1.0997e-05 0.0121273)
(7.30006e-06 -1.23391e-05 0.0121236)
(2.55153e-06 -1.30416e-05 0.0121215)
(-2.55149e-06 -1.30416e-05 0.0121215)
(-7.30003e-06 -1.23391e-05 0.0121236)
(-1.09971e-05 -1.09971e-05 0.0121273)
(-1.30304e-05 -9.09423e-06 0.0121302)
(-1.30933e-05 -6.78559e-06 0.0121204)
(1.10189e-05 -8.03633e-06 0.0120986)
(1.08063e-05 -1.08063e-05 0.0121269)
(9.09417e-06 -1.30303e-05 0.0121302)
(6.02552e-06 -1.46035e-05 0.0121288)
(2.10168e-06 -1.54337e-05 0.0121276)
(-2.10164e-06 -1.54337e-05 0.0121276)
(-6.02553e-06 -1.46036e-05 0.0121288)
(-9.09424e-06 -1.30304e-05 0.0121302)
(-1.08064e-05 -1.08064e-05 0.0121269)
(-1.10188e-05 -8.03632e-06 0.0120986)
(8.50692e-06 -8.50688e-06 0.0120297)
(8.03636e-06 -1.10188e-05 0.0120986)
(6.78555e-06 -1.30933e-05 0.0121204)
(4.47661e-06 -1.45945e-05 0.0121264)
(1.55284e-06 -1.53967e-05 0.012128)
(-1.55285e-06 -1.53967e-05 0.012128)
(-4.47666e-06 -1.45946e-05 0.0121264)
(-6.7856e-06 -1.30933e-05 0.0121204)
(-8.03633e-06 -1.10188e-05 0.0120986)
(-8.50687e-06 -8.50684e-06 0.0120297)
(2.75139e-06 2.75139e-06 0.0120256)
(2.66741e-06 3.70126e-06 0.0120961)
(2.30748e-06 4.48711e-06 0.0121196)
(1.54071e-06 5.07015e-06 0.0121269)
(5.3798e-07 5.38183e-06 0.0121291)
(-5.37983e-07 5.38183e-06 0.0121291)
(-1.54071e-06 5.07017e-06 0.0121269)
(-2.30748e-06 4.48716e-06 0.0121196)
(-2.66742e-06 3.70133e-06 0.0120961)
(-2.75138e-06 2.75142e-06 0.0120256)
(3.70125e-06 2.66742e-06 0.0120961)
(3.73141e-06 3.73141e-06 0.0121273)
(3.208e-06 4.60506e-06 0.0121332)
(2.1527e-06 5.23625e-06 0.0121339)
(7.55659e-07 5.57173e-06 0.0121337)
(-7.55634e-07 5.57174e-06 0.0121337)
(-2.15265e-06 5.23627e-06 0.0121339)
(-3.20798e-06 4.60513e-06 0.0121332)
(-3.73146e-06 3.73149e-06 0.0121273)
(-3.70129e-06 2.66745e-06 0.0120961)
(4.48708e-06 2.30748e-06 0.0121196)
(4.60505e-06 3.208e-06 0.0121332)
(3.97172e-06 3.97172e-06 0.0121337)
(2.67178e-06 4.52236e-06 0.0121326)
(9.39943e-07 4.81348e-06 0.0121319)
(-9.39913e-07 4.81348e-06 0.0121319)
(-2.67172e-06 4.52236e-06 0.0121326)
(-3.97167e-06 3.9717e-06 0.0121337)
(-4.6051e-06 3.20801e-06 0.0121332)
(-4.48715e-06 2.3075e-06 0.0121196)
(5.07013e-06 1.54072e-06 0.0121269)
(5.23623e-06 2.15272e-06 0.0121339)
(4.52236e-06 2.67179e-06 0.0121326)
(3.04596e-06 3.04597e-06 0.0121309)
(1.07273e-06 3.24343e-06 0.01213)
(-1.07271e-06 3.24343e-06 0.01213)
(-3.04592e-06 3.04596e-06 0.0121309)
(-4.52232e-06 2.67175e-06 0.0121326)
(-5.23624e-06 2.15268e-06 0.0121339)
(-5.07016e-06 1.54074e-06 0.0121269)
(5.38183e-06 5.37977e-07 0.0121291)
(5.57173e-06 7.55671e-07 0.0121337)
(4.81347e-06 9.3995e-07 0.0121319)
(3.24342e-06 1.07274e-06 0.01213)
(1.14271e-06 1.14272e-06 0.0121289)
(-1.14269e-06 1.14272e-06 0.0121289)
(-3.2434e-06 1.07273e-06 0.01213)
(-4.81345e-06 9.39933e-07 0.0121319)
(-5.57171e-06 7.55651e-07 0.0121337)
(-5.38184e-06 5.37998e-07 0.0121291)
(5.38183e-06 -5.37994e-07 0.0121291)
(5.57174e-06 -7.55637e-07 0.0121337)
(4.81348e-06 -9.39911e-07 0.0121319)
(3.24342e-06 -1.07271e-06 0.01213)
(1.14271e-06 -1.14269e-06 0.0121289)
(-1.1427e-06 -1.14269e-06 0.0121289)
(-3.2434e-06 -1.07272e-06 0.01213)
(-4.81345e-06 -9.39923e-07 0.0121319)
(-5.57171e-06 -7.5565e-07 0.0121337)
(-5.38184e-06 -5.37989e-07 0.0121291)
(5.07016e-06 -1.54072e-06 0.0121269)
(5.23627e-06 -2.15265e-06 0.0121339)
(4.52235e-06 -2.67173e-06 0.0121326)
(3.04595e-06 -3.04593e-06 0.0121309)
(1.07273e-06 -3.2434e-06 0.01213)
(-1.07272e-06 -3.2434e-06 0.01213)
(-3.04594e-06 -3.04594e-06 0.0121309)
(-4.52233e-06 -2.67175e-06 0.0121326)
(-5.23624e-06 -2.1527e-06 0.0121339)
(-5.07015e-06 -1.54074e-06 0.0121269)
(4.48717e-06 -2.30747e-06 0.0121196)
(4.60512e-06 -3.20799e-06 0.0121332)
(3.97169e-06 -3.97169e-06 0.0121337)
(2.67175e-06 -4.52233e-06 0.0121326)
(9.39937e-07 -4.81345e-06 0.0121319)
(-9.3993e-07 -4.81345e-06 0.0121319)
(-2.67175e-06 -4.52234e-06 0.0121326)
(-3.9717e-06 -3.97171e-06 0.0121337)
(-4.60509e-06 -3.20803e-06 0.0121332)
(-4.48711e-06 -2.3075e-06 0.0121196)
(3.70132e-06 -2.66743e-06 0.0120961)
(3.73147e-06 -3.73149e-06 0.0121273)
(3.20802e-06 -4.60512e-06 0.0121332)
(2.1527e-06 -5.23624e-06 0.0121339)
(7.55652e-07 -5.57171e-06 0.0121337)
(-7.55667e-07 -5.57171e-06 0.0121337)
(-2.1527e-06 -5.23623e-06 0.0121339)
(-3.20802e-06 -4.60507e-06 0.0121332)
(-3.73144e-06 -3.73144e-06 0.0121273)
(-3.70126e-06 -2.66743e-06 0.0120961)
(2.75141e-06 -2.75138e-06 0.0120256)
(2.66743e-06 -3.70128e-06 0.0120961)
(2.30752e-06 -4.48713e-06 0.0121196)
(1.54077e-06 -5.07015e-06 0.0121269)
(5.37996e-07 -5.38184e-06 0.0121291)
(-5.37992e-07 -5.38183e-06 0.0121291)
(-1.54073e-06 -5.07013e-06 0.0121269)
(-2.3075e-06 -4.48711e-06 0.0121196)
(-2.66744e-06 -3.70126e-06 0.0120961)
(-2.75138e-06 -2.75138e-06 0.0120256)
(8.9672e-07 8.96728e-07 0.0120242)
(8.82494e-07 1.23364e-06 0.0120953)
(7.73851e-07 1.51343e-06 0.0121193)
(5.19857e-07 1.72645e-06 0.0121271)
(1.82196e-07 1.84051e-06 0.0121295)
(-1.82202e-07 1.8405e-06 0.0121295)
(-5.19832e-07 1.72643e-06 0.0121271)
(-7.7381e-07 1.51339e-06 0.0121193)
(-8.82455e-07 1.23362e-06 0.0120953)
(-8.96696e-07 8.96736e-07 0.0120242)
(1.23364e-06 8.82477e-07 0.0120953)
(1.26573e-06 1.26573e-06 0.0121274)
(1.10366e-06 1.58741e-06 0.0121343)
(7.46863e-07 1.82467e-06 0.0121357)
(2.63318e-07 1.95195e-06 0.0121359)
(-2.63328e-07 1.95195e-06 0.0121359)
(-7.46875e-07 1.82467e-06 0.0121357)
(-1.10364e-06 1.58738e-06 0.0121343)
(-1.26567e-06 1.2657e-06 0.0121274)
(-1.23359e-06 8.82471e-07 0.0120953)
(1.51343e-06 7.73843e-07 0.0121193)
(1.58741e-06 1.10366e-06 0.0121343)
(1.39116e-06 1.39116e-06 0.0121361)
(9.45235e-07 1.60303e-06 0.0121359)
(3.34212e-07 1.71633e-06 0.0121357)
(-3.34213e-07 1.71633e-06 0.0121357)
(-9.45243e-07 1.60305e-06 0.0121359)
(-1.39115e-06 1.39118e-06 0.0121361)
(-1.58737e-06 1.10366e-06 0.0121343)
(-1.51339e-06 7.73828e-07 0.0121193)
(1.72646e-06 5.19864e-07 0.0121271)
(1.82468e-06 7.46869e-07 0.0121357)
(1.60303e-06 9.45231e-07 0.0121359)
(1.09152e-06 1.09152e-06 0.0121354)
(3.86506e-07 1.16966e-06 0.012135)
(-3.86495e-07 1.16967e-06 0.012135)
(-1.09152e-06 1.09154e-06 0.0121354)
(-1.60302e-06 9.45259e-07 0.0121359)
(-1.82465e-06 7.46886e-07 0.0121357)
(-1.72642e-06 5.19861e-07 0.0121271)
(1.84051e-06 1.82202e-07 0.0121295)
(1.95195e-06 2.6331e-07 0.0121359)
(1.71632e-06 3.34201e-07 0.0121357)
(1.16967e-06 3.86501e-07 0.012135)
(4.14417e-07 4.14415e-07 0.0121346)
(-4.14394e-07 4.1442e-07 0.0121346)
(-1.16965e-06 3.8652e-07 0.012135)
(-1.71631e-06 3.34233e-07 0.0121357)
(-1.95193e-06 2.63334e-07 0.0121359)
(-1.8405e-06 1.82201e-07 0.0121295)
(1.8405e-06 -1.82206e-07 0.0121295)
(1.95195e-06 -2.6333e-07 0.0121359)
(1.71633e-06 -3.34213e-07 0.0121357)
(1.16968e-06 -3.86493e-07 0.012135)
(4.14424e-07 -4.14389e-07 0.0121346)
(-4.14389e-07 -4.14386e-07 0.0121346)
(-1.16965e-06 -3.86484e-07 0.012135)
(-1.71632e-06 -3.34202e-07 0.0121357)
(-1.95194e-06 -2.63329e-07 0.0121359)
(-1.8405e-06 -1.82213e-07 0.0121295)
(1.72643e-06 -5.19842e-07 0.0121271)
(1.82467e-06 -7.46866e-07 0.0121357)
(1.60305e-06 -9.45234e-07 0.0121359)
(1.09154e-06 -1.09151e-06 0.0121354)
(3.86524e-07 -1.16964e-06 0.012135)
(-3.86489e-07 -1.16964e-06 0.012135)
(-1.09152e-06 -1.09152e-06 0.0121354)
(-1.60304e-06 -9.45241e-07 0.0121359)
(-1.82466e-06 -7.4687e-07 0.0121357)
(-1.72644e-06 -5.19845e-07 0.0121271)
(1.5134e-06 -7.73809e-07 0.0121193)
(1.58739e-06 -1.10364e-06 0.0121343)
(1.39118e-06 -1.39114e-06 0.0121361)
(9.4527e-07 -1.60301e-06 0.0121359)
(3.34231e-07 -1.7163e-06 0.0121357)
(-3.34211e-07 -1.71631e-06 0.0121357)
(-9.45245e-07 -1.60303e-06 0.0121359)
(-1.39116e-06 -1.39115e-06 0.0121361)
(-1.58738e-06 -1.10364e-06 0.0121343)
(-1.51342e-06 -7.73828e-07 0.0121193)
(1.23361e-06 -8.82434e-07 0.0120953)
(1.2657e-06 -1.26566e-06 0.0121274)
(1.10367e-06 -1.58734e-06 0.0121343)
(7.4689e-07 -1.82463e-06 0.0121357)
(2.63326e-07 -1.95193e-06 0.0121359)
(-2.63331e-07 -1.95193e-06 0.0121359)
(-7.46871e-07 -1.82465e-06 0.0121357)
(-1.10365e-06 -1.58738e-06 0.0121343)
(-1.26571e-06 -1.26571e-06 0.0121274)
(-1.23364e-06 -8.82496e-07 0.0120953)
(8.96716e-07 -8.96677e-07 0.0120242)