/*--------------------------------*- C++ -*----------------------------------*\
| =========                 |                                                 |
| \\      /  F ield         | OpenFOAM: The Open Source CFD Toolbox           |
|  \\    /   O peration     | Version:  2412                                  |
|   \\  /    A nd           | Website:  www.openfoam.com                      |
|    \\/     M anipulation  |                                                 |
\*---------------------------------------------------------------------------*/
FoamFile
{
    version     2.0;
    format      ascii;
    arch        "LSB;label=32;scalar=64";
    class       surfaceScalarField;
    location    "3.3";
    object      phi;
}
// * * * * * * * * * * * * * * * * * * * * * * * * * * * * * * * * * * * * * //

dimensions      [0 3 -1 0 0 0 0];

oriented        oriented;

internalField   nonuniform List<scalar> 
43700
(
1.72106e-07
1.72106e-07
5.46956e-07
-2.10575e-07
-2.10575e-07
1.26621e-07
1.51803e-07
5.89317e-07
-1.86252e-07
8.36429e-08
1.39258e-07
6.19624e-07
-1.76473e-07
4.14451e-08
1.30984e-07
6.39242e-07
-1.68316e-07
-7.77185e-16
1.27045e-07
6.48942e-07
-1.64613e-07
-4.14451e-08
1.27045e-07
6.48942e-07
-1.64613e-07
-8.36429e-08
1.30984e-07
6.39242e-07
-1.68316e-07
-1.26621e-07
1.39258e-07
6.19624e-07
-1.76473e-07
-1.72106e-07
1.51803e-07
5.89317e-07
-1.86252e-07
1.72106e-07
5.46956e-07
-2.10575e-07
-2.10575e-07
1.51803e-07
1.26621e-07
5.89317e-07
-1.86252e-07
1.12576e-07
1.12576e-07
6.24297e-07
7.40728e-08
1.02236e-07
6.49216e-07
3.66545e-08
9.53997e-08
6.65499e-07
1.82143e-16
9.20798e-08
6.73592e-07
-3.66545e-08
9.20798e-08
6.73592e-07
-7.40728e-08
9.53997e-08
6.65499e-07
-1.12576e-07
1.02236e-07
6.49216e-07
-1.51803e-07
1.12576e-07
6.24297e-07
1.26621e-07
5.89317e-07
-1.86252e-07
1.39258e-07
8.36429e-08
6.19624e-07
-1.76473e-07
1.02236e-07
7.40728e-08
6.49216e-07
6.68741e-08
6.68741e-08
6.70596e-07
3.30054e-08
6.21005e-08
6.84731e-07
5.22619e-17
5.97665e-08
6.91797e-07
-3.30054e-08
5.97665e-08
6.91797e-07
-6.68741e-08
6.21005e-08
6.84731e-07
-1.02236e-07
6.68741e-08
6.70596e-07
-1.39258e-07
7.40728e-08
6.49216e-07
8.36429e-08
6.19624e-07
-1.76473e-07
1.30984e-07
4.14451e-08
6.39242e-07
-1.68316e-07
9.53997e-08
3.66545e-08
6.65499e-07
6.21005e-08
3.30054e-08
6.84731e-07
3.05713e-08
3.05713e-08
6.97561e-07
-3.90697e-16
2.93767e-08
7.04003e-07
-3.05713e-08
2.93767e-08
7.04003e-07
-6.21005e-08
3.05713e-08
6.97561e-07
-9.53997e-08
3.30054e-08
6.84731e-07
-1.30984e-07
3.66545e-08
6.65499e-07
4.14451e-08
6.39242e-07
-1.68316e-07
1.27045e-07
-4.6714e-16
6.48942e-07
-1.64613e-07
9.20798e-08
-6.42867e-16
6.73592e-07
5.97665e-08
8.69802e-17
6.91797e-07
2.93767e-08
2.67213e-16
7.04003e-07
1.36542e-16
1.5218e-16
7.10146e-07
-2.93767e-08
6.16096e-16
7.10146e-07
-5.97665e-08
1.07519e-15
7.04003e-07
-9.20798e-08
3.58528e-16
6.91797e-07
-1.27045e-07
-2.1542e-16
6.73592e-07
1.1624e-16
6.48942e-07
-1.64613e-07
1.27045e-07
-4.14451e-08
6.48942e-07
-1.64613e-07
9.20798e-08
-3.66545e-08
6.73592e-07
5.97665e-08
-3.30054e-08
6.91797e-07
2.93767e-08
-3.05713e-08
7.04003e-07
6.70048e-16
-2.93767e-08
7.10146e-07
-2.93767e-08
-2.93767e-08
7.10146e-07
-5.97665e-08
-3.05713e-08
7.04003e-07
-9.20798e-08
-3.30054e-08
6.91797e-07
-1.27045e-07
-3.66545e-08
6.73592e-07
-4.14451e-08
6.48942e-07
-1.64613e-07
1.30984e-07
-8.36429e-08
6.39242e-07
-1.68316e-07
9.53997e-08
-7.40728e-08
6.65499e-07
6.21005e-08
-6.68741e-08
6.84731e-07
3.05713e-08
-6.21005e-08
6.97561e-07
3.46338e-16
-5.97665e-08
7.04003e-07
-3.05713e-08
-5.97665e-08
7.04003e-07
-6.21005e-08
-6.21005e-08
6.97561e-07
-9.53997e-08
-6.68741e-08
6.84731e-07
-1.30984e-07
-7.40728e-08
6.65499e-07
-8.36429e-08
6.39242e-07
-1.68316e-07
1.39258e-07
-1.26621e-07
6.19624e-07
-1.76473e-07
1.02236e-07
-1.12576e-07
6.49216e-07
6.68741e-08
-1.02236e-07
6.70596e-07
3.30054e-08
-9.53997e-08
6.84731e-07
-1.46931e-16
-9.20798e-08
6.91797e-07
-3.30054e-08
-9.20798e-08
6.91797e-07
-6.68741e-08
-9.53997e-08
6.84731e-07
-1.02236e-07
-1.02236e-07
6.70596e-07
-1.39258e-07
-1.12576e-07
6.49216e-07
-1.26621e-07
6.19624e-07
-1.76473e-07
1.51803e-07
-1.72106e-07
5.89317e-07
-1.86252e-07
1.12576e-07
-1.51803e-07
6.24297e-07
7.40728e-08
-1.39258e-07
6.49216e-07
3.66545e-08
-1.30984e-07
6.65499e-07
-3.09812e-16
-1.27045e-07
6.73592e-07
-3.66545e-08
-1.27045e-07
6.73592e-07
-7.40728e-08
-1.30984e-07
6.65499e-07
-1.12576e-07
-1.39258e-07
6.49216e-07
-1.51803e-07
-1.51803e-07
6.24297e-07
-1.72106e-07
5.89317e-07
-1.86252e-07
1.72106e-07
5.46956e-07
-2.10575e-07
-2.10575e-07
1.26621e-07
5.89317e-07
-1.86252e-07
8.36429e-08
6.19624e-07
-1.76473e-07
4.14451e-08
6.39242e-07
-1.68316e-07
7.77158e-16
6.48942e-07
-1.64613e-07
-4.14451e-08
6.48942e-07
-1.64613e-07
-8.36429e-08
6.39242e-07
-1.68316e-07
-1.26621e-07
6.19624e-07
-1.76473e-07
-1.72106e-07
5.89317e-07
-1.86252e-07
5.46956e-07
-2.10575e-07
-2.10575e-07
8.24331e-08
8.24331e-08
5.7288e-07
-9.53949e-08
-9.53949e-08
6.48073e-08
8.1074e-08
6.20051e-07
-9.41816e-08
4.45957e-08
8.00685e-08
6.53408e-07
-9.36411e-08
2.26591e-08
7.91097e-08
6.74858e-07
-9.27889e-08
-7.17992e-16
7.87172e-08
6.85436e-07
-9.2552e-08
-2.26591e-08
7.87172e-08
6.85436e-07
-9.2552e-08
-4.45957e-08
7.91097e-08
6.74858e-07
-9.27889e-08
-6.48073e-08
8.00685e-08
6.53408e-07
-9.36411e-08
-8.24331e-08
8.1074e-08
6.20051e-07
-9.41816e-08
8.24331e-08
5.7288e-07
-9.53949e-08
-9.53949e-08
8.1074e-08
6.48073e-08
6.20051e-07
-9.41816e-08
6.38052e-08
6.38052e-08
6.58835e-07
4.39652e-08
6.29197e-08
6.86205e-07
2.23843e-08
6.21578e-08
7.04031e-07
2.83921e-16
6.18023e-08
7.12891e-07
-2.23843e-08
6.18023e-08
7.12891e-07
-4.39652e-08
6.21578e-08
7.04031e-07
-6.38052e-08
6.29197e-08
6.86205e-07
-8.1074e-08
6.38052e-08
6.58835e-07
6.48073e-08
6.20051e-07
-9.41816e-08
8.00685e-08
4.45957e-08
6.53408e-07
-9.36411e-08
6.29197e-08
4.39652e-08
6.86205e-07
4.33468e-08
4.33468e-08
7.09742e-07
2.20917e-08
4.28362e-08
7.25307e-07
8.47452e-16
4.25855e-08
7.33105e-07
-2.20916e-08
4.25855e-08
7.33105e-07
-4.33468e-08
4.28362e-08
7.25307e-07
-6.29197e-08
4.33468e-08
7.09742e-07
-8.00685e-08
4.39652e-08
6.86205e-07
4.45957e-08
6.53408e-07
-9.36411e-08
7.91097e-08
2.26591e-08
6.74858e-07
-9.27889e-08
6.21578e-08
2.23843e-08
7.04031e-07
4.28362e-08
2.20917e-08
7.25307e-07
2.18469e-08
2.18469e-08
7.3954e-07
1.27306e-15
2.17234e-08
7.46712e-07
-2.18469e-08
2.17234e-08
7.46712e-07
-4.28362e-08
2.18469e-08
7.3954e-07
-6.21578e-08
2.20917e-08
7.25307e-07
-7.91097e-08
2.23843e-08
7.04031e-07
2.26591e-08
6.74858e-07
-9.27889e-08
7.87172e-08
-6.45833e-16
6.85436e-07
-9.2552e-08
6.18023e-08
5.06753e-16
7.12891e-07
4.25855e-08
1.31733e-15
7.33105e-07
2.17234e-08
1.32632e-15
7.46712e-07
1.28026e-15
1.25112e-15
7.53593e-07
-2.17234e-08
1.54661e-15
7.53593e-07
-4.25855e-08
1.10005e-15
7.46712e-07
-6.18023e-08
1.48109e-16
7.33105e-07
-7.87172e-08
-3.7118e-16
7.12891e-07
-8.95144e-16
6.85436e-07
-9.2552e-08
7.87172e-08
-2.26591e-08
6.85436e-07
-9.2552e-08
6.18023e-08
-2.23843e-08
7.12891e-07
4.25855e-08
-2.20917e-08
7.33105e-07
2.17234e-08
-2.18469e-08
7.46712e-07
1.51737e-15
-2.17234e-08
7.53593e-07
-2.17234e-08
-2.17234e-08
7.53593e-07
-4.25855e-08
-2.18469e-08
7.46712e-07
-6.18023e-08
-2.20917e-08
7.33105e-07
-7.87172e-08
-2.23843e-08
7.12891e-07
-2.26591e-08
6.85436e-07
-9.2552e-08
7.91097e-08
-4.45957e-08
6.74858e-07
-9.27889e-08
6.21578e-08
-4.39652e-08
7.04031e-07
4.28362e-08
-4.33468e-08
7.25307e-07
2.18469e-08
-4.28362e-08
7.3954e-07
1.035e-15
-4.25855e-08
7.46712e-07
-2.18469e-08
-4.25855e-08
7.46712e-07
-4.28362e-08
-4.28362e-08
7.3954e-07
-6.21578e-08
-4.33468e-08
7.25307e-07
-7.91097e-08
-4.39652e-08
7.04031e-07
-4.45957e-08
6.74858e-07
-9.27889e-08
8.00685e-08
-6.48073e-08
6.53408e-07
-9.36411e-08
6.29197e-08
-6.38052e-08
6.86205e-07
4.33468e-08
-6.29197e-08
7.09742e-07
2.20917e-08
-6.21578e-08
7.25307e-07
4.70502e-16
-6.18023e-08
7.33105e-07
-2.20917e-08
-6.18023e-08
7.33105e-07
-4.33468e-08
-6.21578e-08
7.25307e-07
-6.29197e-08
-6.29197e-08
7.09742e-07
-8.00685e-08
-6.38052e-08
6.86205e-07
-6.48073e-08
6.53408e-07
-9.36411e-08
8.1074e-08
-8.24331e-08
6.20051e-07
-9.41816e-08
6.38052e-08
-8.1074e-08
6.58835e-07
4.39652e-08
-8.00685e-08
6.86205e-07
2.23843e-08
-7.91097e-08
7.04031e-07
-6.1923e-16
-7.87172e-08
7.12891e-07
-2.23843e-08
-7.87172e-08
7.12891e-07
-4.39652e-08
-7.91097e-08
7.04031e-07
-6.38052e-08
-8.00685e-08
6.86205e-07
-8.1074e-08
-8.1074e-08
6.58835e-07
-8.24331e-08
6.20051e-07
-9.41816e-08
8.24331e-08
5.7288e-07
-9.53949e-08
-9.53949e-08
6.48073e-08
6.20051e-07
-9.41816e-08
4.45957e-08
6.53408e-07
-9.36411e-08
2.26591e-08
6.74858e-07
-9.27889e-08
-1.33115e-15
6.85436e-07
-9.2552e-08
-2.26591e-08
6.85436e-07
-9.2552e-08
-4.45957e-08
6.74858e-07
-9.27889e-08
-6.48073e-08
6.53408e-07
-9.36411e-08
-8.24331e-08
6.20051e-07
-9.41816e-08
5.7288e-07
-9.53949e-08
-9.53949e-08
4.75448e-08
4.75448e-08
5.78109e-07
-5.01596e-08
-5.01596e-08
3.98646e-08
4.99944e-08
6.30392e-07
-5.26559e-08
2.85529e-08
5.13925e-08
6.67585e-07
-5.42579e-08
1.4847e-08
5.20112e-08
6.91632e-07
-5.50795e-08
-5.60624e-16
5.23023e-08
7.03512e-07
-5.55318e-08
-1.4847e-08
5.23023e-08
7.03512e-07
-5.55317e-08
-2.85529e-08
5.20112e-08
6.91632e-07
-5.50795e-08
-3.98647e-08
5.13925e-08
6.67585e-07
-5.42579e-08
-4.75448e-08
4.99943e-08
6.30392e-07
-5.26559e-08
4.75448e-08
5.78109e-07
-5.01596e-08
-5.01596e-08
4.99943e-08
3.98647e-08
6.30392e-07
-5.26559e-08
4.20077e-08
4.20077e-08
6.74808e-07
3.01431e-08
4.31252e-08
7.06336e-07
1.56958e-08
4.35673e-08
7.26923e-07
3.22055e-16
4.37386e-08
7.37151e-07
-1.56958e-08
4.37386e-08
7.37151e-07
-3.01431e-08
4.35673e-08
7.26923e-07
-4.20077e-08
4.31252e-08
7.06336e-07
-4.99944e-08
4.20077e-08
6.74808e-07
3.98646e-08
6.30392e-07
-5.26559e-08
5.13925e-08
2.85529e-08
6.67585e-07
-5.42579e-08
4.31252e-08
3.01431e-08
7.06336e-07
3.09138e-08
3.09138e-08
7.34165e-07
1.60918e-08
3.11886e-08
7.52508e-07
1.00969e-15
3.12743e-08
7.61661e-07
-1.60918e-08
3.12743e-08
7.61661e-07
-3.09138e-08
3.11886e-08
7.52508e-07
-4.31252e-08
3.09138e-08
7.34165e-07
-5.13925e-08
3.01431e-08
7.06336e-07
2.85529e-08
6.67585e-07
-5.42579e-08
5.20112e-08
1.4847e-08
6.91632e-07
-5.50795e-08
4.35673e-08
1.56958e-08
7.26923e-07
3.11886e-08
1.60918e-08
7.52508e-07
1.62237e-08
1.62237e-08
7.69469e-07
1.41767e-15
1.62579e-08
7.77952e-07
-1.62237e-08
1.62579e-08
7.77952e-07
-3.11886e-08
1.62237e-08
7.69469e-07
-4.35673e-08
1.60918e-08
7.52508e-07
-5.20112e-08
1.56958e-08
7.26923e-07
1.4847e-08
6.91632e-07
-5.50795e-08
5.23023e-08
6.64139e-17
7.03512e-07
-5.55317e-08
4.37386e-08
2.01525e-15
7.37151e-07
3.12743e-08
2.46424e-15
7.61661e-07
1.62579e-08
2.35644e-15
7.77952e-07
1.09799e-15
1.64663e-15
7.86109e-07
-1.62579e-08
1.3993e-15
7.86109e-07
-3.12743e-08
5.13619e-16
7.77952e-07
-4.37386e-08
-3.71597e-16
7.61661e-07
-5.23023e-08
-1.65473e-15
7.37151e-07
-2.60329e-15
7.03512e-07
-5.55317e-08
5.23023e-08
-1.4847e-08
7.03512e-07
-5.55318e-08
4.37386e-08
-1.56958e-08
7.37151e-07
3.12743e-08
-1.60918e-08
7.61661e-07
1.62579e-08
-1.62237e-08
7.77952e-07
6.93077e-16
-1.62579e-08
7.86109e-07
-1.62579e-08
-1.62579e-08
7.86109e-07
-3.12743e-08
-1.62237e-08
7.77952e-07
-4.37386e-08
-1.60918e-08
7.61661e-07
-5.23023e-08
-1.56958e-08
7.37151e-07
-1.4847e-08
7.03512e-07
-5.55317e-08
5.20112e-08
-2.85529e-08
6.91632e-07
-5.50795e-08
4.35673e-08
-3.01431e-08
7.26923e-07
3.11886e-08
-3.09138e-08
7.52508e-07
1.62237e-08
-3.11886e-08
7.69469e-07
-2.95878e-16
-3.12743e-08
7.77952e-07
-1.62237e-08
-3.12743e-08
7.77952e-07
-3.11886e-08
-3.11886e-08
7.69469e-07
-4.35673e-08
-3.09138e-08
7.52508e-07
-5.20112e-08
-3.01431e-08
7.26923e-07
-2.85529e-08
6.91632e-07
-5.50795e-08
5.13925e-08
-3.98646e-08
6.67585e-07
-5.42579e-08
4.31252e-08
-4.20077e-08
7.06336e-07
3.09138e-08
-4.31252e-08
7.34165e-07
1.60918e-08
-4.35673e-08
7.52508e-07
-4.94615e-16
-4.37386e-08
7.61661e-07
-1.60918e-08
-4.37386e-08
7.61661e-07
-3.09138e-08
-4.35673e-08
7.52508e-07
-4.31252e-08
-4.31252e-08
7.34165e-07
-5.13925e-08
-4.20077e-08
7.06336e-07
-3.98647e-08
6.67585e-07
-5.42579e-08
4.99943e-08
-4.75448e-08
6.30392e-07
-5.26559e-08
4.20077e-08
-4.99943e-08
6.74808e-07
3.01431e-08
-5.13925e-08
7.06336e-07
1.56958e-08
-5.20112e-08
7.26923e-07
-8.24776e-16
-5.23023e-08
7.37151e-07
-1.56958e-08
-5.23023e-08
7.37151e-07
-3.01431e-08
-5.20112e-08
7.26923e-07
-4.20077e-08
-5.13925e-08
7.06336e-07
-4.99943e-08
-4.99943e-08
6.74808e-07
-4.75448e-08
6.30392e-07
-5.26559e-08
4.75448e-08
5.78109e-07
-5.01596e-08
-5.01596e-08
3.98647e-08
6.30392e-07
-5.26559e-08
2.85529e-08
6.67585e-07
-5.42579e-08
1.4847e-08
6.91632e-07
-5.50795e-08
-1.15414e-15
7.03512e-07
-5.55317e-08
-1.4847e-08
7.03512e-07
-5.55317e-08
-2.85529e-08
6.91632e-07
-5.50795e-08
-3.98647e-08
6.67585e-07
-5.42579e-08
-4.75448e-08
6.30392e-07
-5.26559e-08
5.78109e-07
-5.01596e-08
-5.01596e-08
1.6327e-08
1.6327e-08
5.77035e-07
-1.579e-08
-1.579e-08
1.47673e-08
1.90885e-08
6.31246e-07
-1.83828e-08
1.10833e-08
2.09414e-08
6.70304e-07
-1.99764e-08
5.92285e-09
2.20467e-08
6.9578e-07
-2.10336e-08
-2.81907e-16
2.25888e-08
7.08419e-07
-2.15726e-08
-5.92285e-09
2.25888e-08
7.08419e-07
-2.15726e-08
-1.10833e-08
2.20467e-08
6.9578e-07
-2.10336e-08
-1.47673e-08
2.09414e-08
6.70304e-07
-1.99764e-08
-1.6327e-08
1.90885e-08
6.31246e-07
-1.83828e-08
1.6327e-08
5.77035e-07
-1.579e-08
-1.579e-08
1.90885e-08
1.47673e-08
6.31246e-07
-1.83828e-08
1.71927e-08
1.71927e-08
6.786e-07
1.29143e-08
1.88409e-08
7.12715e-07
6.90198e-09
1.98042e-08
7.35177e-07
7.05812e-16
2.02612e-08
7.4638e-07
-6.90198e-09
2.02612e-08
7.4638e-07
-1.29143e-08
1.98042e-08
7.35177e-07
-1.71927e-08
1.88409e-08
7.12715e-07
-1.90885e-08
1.71927e-08
6.786e-07
1.47673e-08
6.31246e-07
-1.83828e-08
2.09414e-08
1.10833e-08
6.70304e-07
-1.99764e-08
1.88409e-08
1.29143e-08
7.12715e-07
1.41281e-08
1.41281e-08
7.43591e-07
7.54384e-09
1.48271e-08
7.6407e-07
1.14816e-15
1.51512e-08
7.74315e-07
-7.54384e-09
1.51512e-08
7.74315e-07
-1.41281e-08
1.48271e-08
7.6407e-07
-1.88409e-08
1.41281e-08
7.43591e-07
-2.09414e-08
1.29143e-08
7.12715e-07
1.10833e-08
6.70304e-07
-1.99764e-08
2.20467e-08
5.92285e-09
6.9578e-07
-2.10336e-08
1.98042e-08
6.90198e-09
7.35177e-07
1.48271e-08
7.54384e-09
7.6407e-07
7.91048e-09
7.91048e-09
7.83302e-07
1.17031e-15
8.07835e-09
7.92936e-07
-7.91048e-09
8.07835e-09
7.92936e-07
-1.48271e-08
7.91048e-09
7.83302e-07
-1.98042e-08
7.54384e-09
7.6407e-07
-2.20467e-08
6.90198e-09
7.35177e-07
5.92285e-09
6.9578e-07
-2.10336e-08
2.25888e-08
6.53182e-16
7.08419e-07
-2.15726e-08
2.02612e-08
6.17232e-16
7.4638e-07
1.51512e-08
1.1751e-15
7.74315e-07
8.07835e-09
1.28716e-15
7.92936e-07
1.15361e-15
1.17618e-15
8.02265e-07
-8.07835e-09
1.2514e-15
8.02265e-07
-1.51512e-08
7.45011e-16
7.92936e-07
-2.02612e-08
6.24998e-18
7.74315e-07
-2.25888e-08
-1.19568e-15
7.4638e-07
-1.50603e-15
7.08419e-07
-2.15726e-08
2.25888e-08
-5.92285e-09
7.08419e-07
-2.15726e-08
2.02612e-08
-6.90198e-09
7.4638e-07
1.51512e-08
-7.54384e-09
7.74315e-07
8.07835e-09
-7.91048e-09
7.92936e-07
1.1242e-15
-8.07835e-09
8.02265e-07
-8.07835e-09
-8.07835e-09
8.02265e-07
-1.51512e-08
-7.91048e-09
7.92936e-07
-2.02612e-08
-7.54384e-09
7.74315e-07
-2.25888e-08
-6.90198e-09
7.4638e-07
-5.92285e-09
7.08419e-07
-2.15726e-08
2.20467e-08
-1.10833e-08
6.9578e-07
-2.10336e-08
1.98042e-08
-1.29143e-08
7.35177e-07
1.48271e-08
-1.41281e-08
7.6407e-07
7.91048e-09
-1.48271e-08
7.83302e-07
7.15003e-16
-1.51512e-08
7.92936e-07
-7.91048e-09
-1.51512e-08
7.92936e-07
-1.48271e-08
-1.48271e-08
7.83302e-07
-1.98042e-08
-1.41281e-08
7.6407e-07
-2.20467e-08
-1.29143e-08
7.35177e-07
-1.10833e-08
6.9578e-07
-2.10336e-08
2.09414e-08
-1.47673e-08
6.70304e-07
-1.99764e-08
1.88409e-08
-1.71927e-08
7.12715e-07
1.41281e-08
-1.88409e-08
7.43591e-07
7.54384e-09
-1.98042e-08
7.6407e-07
4.69403e-16
-2.02612e-08
7.74315e-07
-7.54384e-09
-2.02612e-08
7.74315e-07
-1.41281e-08
-1.98042e-08
7.6407e-07
-1.88409e-08
-1.88409e-08
7.43591e-07
-2.09414e-08
-1.71927e-08
7.12715e-07
-1.47673e-08
6.70304e-07
-1.99764e-08
1.90885e-08
-1.6327e-08
6.31246e-07
-1.83828e-08
1.71927e-08
-1.90885e-08
6.786e-07
1.29143e-08
-2.09414e-08
7.12715e-07
6.90198e-09
-2.20467e-08
7.35177e-07
-4.3186e-16
-2.25888e-08
7.4638e-07
-6.90198e-09
-2.25888e-08
7.4638e-07
-1.29143e-08
-2.20467e-08
7.35177e-07
-1.71927e-08
-2.09414e-08
7.12715e-07
-1.90885e-08
-1.90885e-08
6.786e-07
-1.6327e-08
6.31246e-07
-1.83828e-08
1.6327e-08
5.77035e-07
-1.579e-08
-1.579e-08
1.47673e-08
6.31246e-07
-1.83828e-08
1.10833e-08
6.70304e-07
-1.99764e-08
5.92285e-09
6.9578e-07
-2.10336e-08
-1.26314e-15
7.08419e-07
-2.15726e-08
-5.92285e-09
7.08419e-07
-2.15726e-08
-1.10833e-08
6.9578e-07
-2.10336e-08
-1.47673e-08
6.70304e-07
-1.99764e-08
-1.6327e-08
6.31246e-07
-1.83828e-08
5.77035e-07
-1.579e-08
-1.579e-08
5.55639e-09
5.55639e-09
5.76118e-07
-5.09781e-09
-5.09781e-09
5.19256e-09
6.76134e-09
6.30986e-07
-6.13666e-09
3.97631e-09
7.61382e-09
6.70719e-07
-6.81288e-09
2.15054e-09
8.15976e-09
6.96732e-07
-7.28657e-09
-1.64106e-16
8.43376e-09
7.09662e-07
-7.52608e-09
-2.15054e-09
8.43376e-09
7.09662e-07
-7.52608e-09
-3.97631e-09
8.15976e-09
6.96732e-07
-7.28657e-09
-5.19256e-09
7.61382e-09
6.70719e-07
-6.81288e-09
-5.55638e-09
6.76133e-09
6.30986e-07
-6.13665e-09
5.55639e-09
5.76118e-07
-5.09781e-09
-5.09781e-09
6.76134e-09
5.19256e-09
6.30986e-07
-6.13666e-09
6.32342e-09
6.32342e-09
6.79476e-07
4.86276e-09
7.14219e-09
7.14648e-07
2.63407e-09
7.65857e-09
7.37907e-07
9.1984e-16
7.91375e-09
7.49535e-07
-2.63407e-09
7.91375e-09
7.49535e-07
-4.86276e-09
7.65857e-09
7.37907e-07
-6.32341e-09
7.14218e-09
7.14648e-07
-6.76133e-09
6.32341e-09
6.79476e-07
5.19256e-09
6.30986e-07
-6.13665e-09
7.61382e-09
3.97631e-09
6.70719e-07
-6.81288e-09
7.14219e-09
4.86276e-09
7.14648e-07
5.50078e-09
5.50078e-09
7.46874e-07
2.98211e-09
5.90014e-09
7.68347e-07
1.28963e-15
6.09499e-09
7.79116e-07
-2.98211e-09
6.09499e-09
7.79116e-07
-5.50077e-09
5.90014e-09
7.68347e-07
-7.14219e-09
5.50077e-09
7.46874e-07
-7.61382e-09
4.86276e-09
7.14648e-07
3.97631e-09
6.70719e-07
-6.81288e-09
8.15976e-09
2.15054e-09
6.96732e-07
-7.28657e-09
7.65857e-09
2.63408e-09
7.37907e-07
5.90014e-09
2.98212e-09
7.68347e-07
3.19956e-09
3.19956e-09
7.88704e-07
1.29103e-15
3.30496e-09
7.98925e-07
-3.19955e-09
3.30496e-09
7.98925e-07
-5.90014e-09
3.19956e-09
7.88704e-07
-7.65857e-09
2.98211e-09
7.68347e-07
-8.15976e-09
2.63407e-09
7.37907e-07
2.15054e-09
6.96732e-07
-7.28657e-09
8.43376e-09
-5.96514e-16
7.09662e-07
-7.52608e-09
7.91375e-09
1.99978e-15
7.49535e-07
6.09499e-09
2.4678e-15
7.79116e-07
3.30496e-09
2.01624e-15
7.98925e-07
8.27251e-16
1.44268e-15
8.08875e-07
-3.30496e-09
8.69139e-16
8.08875e-07
-6.09499e-09
1.20253e-16
7.98925e-07
-7.91375e-09
-7.65834e-16
7.79116e-07
-8.43376e-09
-1.05488e-15
7.49535e-07
2.55957e-16
7.09662e-07
-7.52608e-09
8.43376e-09
-2.15054e-09
7.09662e-07
-7.52608e-09
7.91375e-09
-2.63407e-09
7.49535e-07
6.09499e-09
-2.98211e-09
7.79116e-07
3.30496e-09
-3.19955e-09
7.98925e-07
2.42447e-16
-3.30496e-09
8.08875e-07
-3.30496e-09
-3.30496e-09
8.08875e-07
-6.09499e-09
-3.19956e-09
7.98925e-07
-7.91375e-09
-2.98211e-09
7.79116e-07
-8.43376e-09
-2.63407e-09
7.49535e-07
-2.15054e-09
7.09662e-07
-7.52607e-09
8.15976e-09
-3.97631e-09
6.96732e-07
-7.28657e-09
7.65857e-09
-4.86276e-09
7.37907e-07
5.90014e-09
-5.50077e-09
7.68347e-07
3.19955e-09
-5.90014e-09
7.88704e-07
-6.0355e-16
-6.09499e-09
7.98925e-07
-3.19956e-09
-6.09499e-09
7.98925e-07
-5.90014e-09
-5.90014e-09
7.88704e-07
-7.65857e-09
-5.50077e-09
7.68347e-07
-8.15976e-09
-4.86276e-09
7.37907e-07
-3.97631e-09
6.96732e-07
-7.28657e-09
7.61381e-09
-5.19256e-09
6.70719e-07
-6.81287e-09
7.14218e-09
-6.32341e-09
7.14648e-07
5.50077e-09
-7.14218e-09
7.46874e-07
2.98211e-09
-7.65857e-09
7.68347e-07
-1.12576e-15
-7.91375e-09
7.79116e-07
-2.98211e-09
-7.91375e-09
7.79116e-07
-5.50077e-09
-7.65857e-09
7.68347e-07
-7.14218e-09
-7.14218e-09
7.46874e-07
-7.61382e-09
-6.32341e-09
7.14648e-07
-5.19256e-09
6.70719e-07
-6.81288e-09
6.76133e-09
-5.55638e-09
6.30986e-07
-6.13665e-09
6.32341e-09
-6.76133e-09
6.79476e-07
4.86276e-09
-7.61381e-09
7.14648e-07
2.63407e-09
-8.15976e-09
7.37907e-07
-1.45015e-15
-8.43376e-09
7.49535e-07
-2.63407e-09
-8.43376e-09
7.49535e-07
-4.86276e-09
-8.15976e-09
7.37907e-07
-6.32341e-09
-7.61382e-09
7.14648e-07
-6.76133e-09
-6.76133e-09
6.79476e-07
-5.55638e-09
6.30986e-07
-6.13665e-09
5.55638e-09
5.76118e-07
-5.09781e-09
-5.09781e-09
5.19256e-09
6.30986e-07
-6.13665e-09
3.97631e-09
6.70719e-07
-6.81287e-09
2.15054e-09
6.96732e-07
-7.28657e-09
2.30701e-16
7.09662e-07
-7.52608e-09
-2.15054e-09
7.09662e-07
-7.52608e-09
-3.97631e-09
6.96732e-07
-7.28657e-09
-5.19256e-09
6.70719e-07
-6.81288e-09
-5.55639e-09
6.30986e-07
-6.13665e-09
5.76118e-07
-5.09781e-09
-5.09781e-09
1.85205e-09
1.85205e-09
5.75603e-07
-1.59441e-09
-1.59441e-09
1.80112e-09
2.35994e-09
6.3069e-07
-2.01367e-09
1.41318e-09
2.72665e-09
6.70676e-07
-2.2951e-09
7.75072e-10
2.96825e-09
6.96899e-07
-2.49699e-09
-3.88432e-16
3.0896e-09
7.09945e-07
-2.59759e-09
-7.75073e-10
3.0896e-09
7.09945e-07
-2.59759e-09
-1.41318e-09
2.96825e-09
6.96899e-07
-2.49699e-09
-1.80112e-09
2.72665e-09
6.70676e-07
-2.2951e-09
-1.85205e-09
2.35994e-09
6.3069e-07
-2.01367e-09
1.85205e-09
5.75603e-07
-1.59441e-09
-1.59441e-09
2.35994e-09
1.80112e-09
6.3069e-07
-2.01367e-09
2.29059e-09
2.2906e-09
6.79614e-07
1.801e-09
2.65246e-09
7.15211e-07
9.87592e-10
2.8864e-09
7.38803e-07
-7.54664e-16
3.00297e-09
7.50609e-07
-9.87594e-10
3.00297e-09
7.50609e-07
-1.801e-09
2.8864e-09
7.38803e-07
-2.2906e-09
2.65246e-09
7.15211e-07
-2.35994e-09
2.2906e-09
6.79614e-07
1.80112e-09
6.3069e-07
-2.01367e-09
2.72665e-09
1.41318e-09
6.70676e-07
-2.2951e-09
2.65246e-09
1.801e-09
7.15211e-07
2.08795e-09
2.08795e-09
7.48003e-07
1.14543e-09
2.27216e-09
7.69903e-07
1.31316e-16
2.36317e-09
7.80901e-07
-1.14543e-09
2.36317e-09
7.80901e-07
-2.08795e-09
2.27216e-09
7.69903e-07
-2.65246e-09
2.08795e-09
7.48003e-07
-2.72666e-09
1.801e-09
7.15211e-07
1.41318e-09
6.70676e-07
-2.2951e-09
2.96825e-09
7.75072e-10
6.96899e-07
-2.49699e-09
2.8864e-09
9.87593e-10
7.38803e-07
2.27216e-09
1.14543e-09
7.69903e-07
1.24679e-09
1.24679e-09
7.90754e-07
9.01868e-16
1.29667e-09
8.01239e-07
-1.24679e-09
1.29667e-09
8.01239e-07
-2.27216e-09
1.24679e-09
7.90754e-07
-2.8864e-09
1.14543e-09
7.69903e-07
-2.96825e-09
9.87593e-10
7.38803e-07
7.75072e-10
6.96899e-07
-2.49699e-09
3.0896e-09
-2.77641e-16
7.09945e-07
-2.59759e-09
3.00297e-09
-4.51467e-16
7.50609e-07
2.36317e-09
-2.55221e-16
7.80901e-07
1.29667e-09
4.61556e-16
8.01239e-07
1.26709e-15
9.98435e-16
8.11468e-07
-1.29667e-09
1.14888e-15
8.11468e-07
-2.36317e-09
1.2412e-15
8.01239e-07
-3.00297e-09
1.19296e-15
7.80901e-07
-3.0896e-09
2.67212e-16
7.50609e-07
-8.77152e-16
7.09945e-07
-2.59759e-09
3.0896e-09
-7.75073e-10
7.09945e-07
-2.59759e-09
3.00297e-09
-9.87594e-10
7.50609e-07
2.36317e-09
-1.14544e-09
7.80901e-07
1.29667e-09
-1.24679e-09
8.01239e-07
1.58905e-15
-1.29667e-09
8.11468e-07
-1.29666e-09
-1.29667e-09
8.11468e-07
-2.36317e-09
-1.24678e-09
8.01239e-07
-3.00297e-09
-1.14543e-09
7.80901e-07
-3.0896e-09
-9.87593e-10
7.50609e-07
-7.75073e-10
7.09945e-07
-2.59759e-09
2.96825e-09
-1.41318e-09
6.96899e-07
-2.49699e-09
2.8864e-09
-1.801e-09
7.38803e-07
2.27216e-09
-2.08795e-09
7.69903e-07
1.24679e-09
-2.27216e-09
7.90754e-07
1.40346e-15
-2.36317e-09
8.01239e-07
-1.24678e-09
-2.36317e-09
8.01239e-07
-2.27216e-09
-2.27216e-09
7.90754e-07
-2.8864e-09
-2.08795e-09
7.69903e-07
-2.96825e-09
-1.801e-09
7.38803e-07
-1.41318e-09
6.96899e-07
-2.49699e-09
2.72665e-09
-1.80112e-09
6.70676e-07
-2.2951e-09
2.65246e-09
-2.2906e-09
7.15211e-07
2.08795e-09
-2.65246e-09
7.48003e-07
1.14543e-09
-2.8864e-09
7.69903e-07
1.1417e-15
-3.00297e-09
7.80901e-07
-1.14543e-09
-3.00297e-09
7.80901e-07
-2.08795e-09
-2.8864e-09
7.69903e-07
-2.65246e-09
-2.65246e-09
7.48003e-07
-2.72665e-09
-2.2906e-09
7.15211e-07
-1.80112e-09
6.70676e-07
-2.2951e-09
2.35994e-09
-1.85205e-09
6.3069e-07
-2.01367e-09
2.2906e-09
-2.35994e-09
6.79614e-07
1.801e-09
-2.72666e-09
7.15211e-07
9.87594e-10
-2.96825e-09
7.38803e-07
7.05964e-16
-3.0896e-09
7.50609e-07
-9.87592e-10
-3.0896e-09
7.50609e-07
-1.801e-09
-2.96824e-09
7.38803e-07
-2.2906e-09
-2.72665e-09
7.15211e-07
-2.35994e-09
-2.35994e-09
6.79614e-07
-1.85205e-09
6.3069e-07
-2.01367e-09
1.85205e-09
5.75603e-07
-1.59441e-09
-1.59441e-09
1.80112e-09
6.3069e-07
-2.01367e-09
1.41318e-09
6.70676e-07
-2.2951e-09
7.75072e-10
6.96899e-07
-2.49699e-09
-4.90258e-16
7.09945e-07
-2.59759e-09
-7.75071e-10
7.09945e-07
-2.59759e-09
-1.41318e-09
6.96899e-07
-2.49699e-09
-1.80112e-09
6.70676e-07
-2.29509e-09
-1.85205e-09
6.3069e-07
-2.01367e-09
5.75603e-07
-1.59441e-09
-1.59441e-09
5.61479e-10
5.61482e-10
5.75394e-07
-4.57049e-10
-4.57049e-10
5.70702e-10
7.60878e-10
6.30536e-07
-6.15454e-10
4.59279e-10
9.09597e-10
6.70599e-07
-7.21493e-10
2.55746e-10
1.01152e-09
6.96893e-07
-8.01959e-10
-5.01557e-17
1.06332e-09
7.09979e-07
-8.42044e-10
-2.55746e-10
1.06332e-09
7.09979e-07
-8.42044e-10
-4.59279e-10
1.01152e-09
6.96893e-07
-8.01958e-10
-5.70702e-10
9.09593e-10
6.70599e-07
-7.2149e-10
-5.61478e-10
7.60875e-10
6.30536e-07
-6.15453e-10
5.61482e-10
5.75394e-07
-4.57048e-10
-4.57048e-10
7.60876e-10
5.70707e-10
6.30536e-07
-6.15454e-10
7.67628e-10
7.6763e-10
6.79601e-07
6.1843e-10
9.19771e-10
7.15351e-07
3.43878e-10
1.02199e-09
7.39067e-07
1.07549e-15
1.07378e-09
7.50942e-07
-3.43876e-10
1.07378e-09
7.50942e-07
-6.18429e-10
1.02199e-09
7.39067e-07
-7.67626e-10
9.19768e-10
7.15351e-07
-7.60874e-10
7.67625e-10
6.79601e-07
5.70706e-10
6.30536e-07
-6.15453e-10
9.096e-10
4.59281e-10
6.70599e-07
-7.21494e-10
9.19775e-10
6.18431e-10
7.15351e-07
7.41869e-10
7.41866e-10
7.48358e-07
4.12582e-10
8.2418e-10
7.7043e-07
1.61286e-15
8.65631e-10
7.81522e-07
-4.12579e-10
8.65631e-10
7.81522e-07
-7.41865e-10
8.24179e-10
7.7043e-07
-9.19772e-10
7.41864e-10
7.48358e-07
-9.09598e-10
6.18428e-10
7.15351e-07
4.59279e-10
6.70599e-07
-7.21492e-10
1.01153e-09
2.55747e-10
6.96893e-07
-8.0196e-10
1.02199e-09
3.43878e-10
7.39067e-07
8.24182e-10
4.12581e-10
7.7043e-07
4.584e-10
4.584e-10
7.91486e-07
1.28013e-15
4.8141e-10
8.02081e-07
-4.58398e-10
4.8141e-10
8.02081e-07
-8.2418e-10
4.58399e-10
7.91486e-07
-1.02199e-09
4.12579e-10
7.7043e-07
-1.01153e-09
3.43876e-10
7.39067e-07
2.55745e-10
6.96893e-07
-8.01959e-10
1.06332e-09
-3.14997e-16
7.09979e-07
-8.42045e-10
1.07378e-09
1.66942e-15
7.50942e-07
8.6563e-10
1.85458e-15
7.81522e-07
4.81409e-10
1.57818e-15
8.02081e-07
8.81651e-16
1.41716e-15
8.12431e-07
-4.81407e-10
9.76052e-16
8.12431e-07
-8.65628e-10
3.11116e-16
8.02081e-07
-1.07378e-09
-2.41674e-17
7.81522e-07
-1.06332e-09
-2.61303e-16
7.50942e-07
-6.83335e-17
7.09979e-07
-8.42045e-10
1.06332e-09
-2.55747e-10
7.09979e-07
-8.42044e-10
1.07378e-09
-3.43876e-10
7.50942e-07
8.6563e-10
-4.12578e-10
7.81522e-07
4.81409e-10
-4.58397e-10
8.02081e-07
3.38723e-16
-4.81408e-10
8.12431e-07
-4.81408e-10
-4.81408e-10
8.12431e-07
-8.65629e-10
-4.58399e-10
8.02081e-07
-1.07378e-09
-4.1258e-10
7.81522e-07
-1.06332e-09
-3.43877e-10
7.50942e-07
-2.55744e-10
7.09979e-07
-8.42045e-10
1.01153e-09
-4.59281e-10
6.96893e-07
-8.01959e-10
1.02199e-09
-6.18428e-10
7.39067e-07
8.2418e-10
-7.41863e-10
7.7043e-07
4.58399e-10
-8.24178e-10
7.91486e-07
9.45553e-18
-8.65628e-10
8.02081e-07
-4.58399e-10
-8.65628e-10
8.02081e-07
-8.2418e-10
-8.24179e-10
7.91486e-07
-1.02199e-09
-7.41865e-10
7.7043e-07
-1.01153e-09
-6.18428e-10
7.39067e-07
-4.59279e-10
6.96893e-07
-8.01958e-10
9.09596e-10
-5.70706e-10
6.70599e-07
-7.21492e-10
9.19771e-10
-7.67626e-10
7.15351e-07
7.41866e-10
-9.19768e-10
7.48358e-07
4.1258e-10
-1.02199e-09
7.7043e-07
3.53399e-16
-1.07378e-09
7.81522e-07
-4.12579e-10
-1.07378e-09
7.81522e-07
-7.41864e-10
-1.02199e-09
7.7043e-07
-9.19769e-10
-9.19769e-10
7.48358e-07
-9.09596e-10
-7.67624e-10
7.15351e-07
-5.70706e-10
6.70599e-07
-7.2149e-10
7.60874e-10
-5.6148e-10
6.30536e-07
-6.15453e-10
7.67624e-10
-7.60874e-10
6.79601e-07
6.18427e-10
-9.09595e-10
7.15351e-07
3.43876e-10
-1.01152e-09
7.39067e-07
3.15057e-16
-1.06332e-09
7.50942e-07
-3.43875e-10
-1.06332e-09
7.50942e-07
-6.18427e-10
-1.01153e-09
7.39067e-07
-7.67624e-10
-9.09595e-10
7.15351e-07
-7.60872e-10
-7.60874e-10
6.79601e-07
-5.61481e-10
6.30536e-07
-6.15451e-10
5.61479e-10
5.75394e-07
-4.57048e-10
-4.57047e-10
5.70704e-10
6.30536e-07
-6.15454e-10
4.59278e-10
6.70599e-07
-7.21491e-10
2.55745e-10
6.96893e-07
-8.01958e-10
7.43556e-16
7.09979e-07
-8.42045e-10
-2.55744e-10
7.09979e-07
-8.42045e-10
-4.59278e-10
6.96893e-07
-8.01958e-10
-5.70703e-10
6.70599e-07
-7.21491e-10
-5.61479e-10
6.30536e-07
-6.15453e-10
5.75394e-07
-4.57048e-10
-4.57048e-10
1.69029e-10
1.69028e-10
5.75321e-07
-1.32392e-10
-1.32392e-10
1.77039e-10
2.38889e-10
6.30475e-07
-1.86499e-10
1.44665e-10
2.92188e-10
6.70561e-07
-2.22078e-10
8.1361e-11
3.30095e-10
6.96877e-07
-2.50762e-10
1.71501e-16
3.49516e-10
7.09976e-07
-2.64857e-10
-8.13606e-11
3.49516e-10
7.09976e-07
-2.64857e-10
-1.44664e-10
3.30094e-10
6.96877e-07
-2.50762e-10
-1.77037e-10
2.92189e-10
6.70561e-07
-2.22079e-10
-1.69028e-10
2.38891e-10
6.30475e-07
-1.865e-10
1.69028e-10
5.75321e-07
-1.32391e-10
-1.32391e-10
2.3889e-10
1.77037e-10
6.30475e-07
-1.86499e-10
2.47536e-10
2.47533e-10
6.79583e-07
2.02821e-10
3.04097e-10
7.15383e-07
1.13919e-10
3.43477e-10
7.39142e-07
-6.42489e-16
3.63752e-10
7.51042e-07
-1.1392e-10
3.63751e-10
7.51042e-07
-2.02822e-10
3.43476e-10
7.39142e-07
-2.47538e-10
3.04098e-10
7.15383e-07
-2.38892e-10
2.47537e-10
6.79583e-07
1.77036e-10
6.30475e-07
-1.86499e-10
2.92187e-10
1.44663e-10
6.70561e-07
-2.22077e-10
3.04094e-10
2.0282e-10
7.15383e-07
2.49887e-10
2.49889e-10
7.48467e-07
1.40474e-10
2.82429e-10
7.70601e-07
-8.28966e-16
2.99133e-10
7.81727e-07
-1.40476e-10
2.99133e-10
7.81727e-07
-2.4989e-10
2.8243e-10
7.70601e-07
-3.04098e-10
2.49891e-10
7.48467e-07
-2.9219e-10
2.02822e-10
7.15383e-07
1.44662e-10
6.70561e-07
-2.22079e-10
3.30093e-10
8.13604e-11
6.96877e-07
-2.50761e-10
3.43474e-10
1.13919e-10
7.39142e-07
2.82428e-10
1.40475e-10
7.70601e-07
1.58852e-10
1.58852e-10
7.91733e-07
-4.25581e-16
1.68275e-10
8.02371e-07
-1.58853e-10
1.68275e-10
8.02371e-07