/*--------------------------------*- C++ -*----------------------------------*\
| =========                 |                                                 |
| \\      /  F ield         | OpenFOAM: The Open Source CFD Toolbox           |
|  \\    /   O peration     | Version:  2412                                  |
|   \\  /    A nd           | Website:  www.openfoam.com                      |
|    \\/     M anipulation  |                                                 |
\*---------------------------------------------------------------------------*/
FoamFile
{
    version     2.0;
    format      ascii;
    arch        "LSB;label=32;scalar=64";
    class       volVectorField;
    location    "3.3";
    object      U;
}
// * * * * * * * * * * * * * * * * * * * * * * * * * * * * * * * * * * * * * //

dimensions      [0 1 -1 0 0 0 0];

internalField   nonuniform List<vector> 
15000
(
(0.00113087 0.00113087 0.0105858)
(0.000830993 0.00105171 0.0105577)
(0.000564242 0.00102694 0.01052)
(0.00033076 0.00100233 0.0104889)
(0.000108476 0.000991214 0.0104724)
(-0.000108476 0.000991214 0.0104724)
(-0.00033076 0.00100233 0.0104889)
(-0.000564242 0.00102694 0.01052)
(-0.000830993 0.00105171 0.0105577)
(-0.00113087 0.00113087 0.0105858)
(0.00105171 0.000830993 0.0105577)
(0.00078041 0.00078041 0.0104978)
(0.000533452 0.00074647 0.0104412)
(0.000310911 0.00072275 0.0104014)
(0.000101941 0.000711407 0.0103815)
(-0.000101941 0.000711407 0.0103815)
(-0.000310911 0.00072275 0.0104014)
(-0.000533452 0.00074647 0.0104412)
(-0.00078041 0.00078041 0.0104978)
(-0.00105171 0.000830993 0.0105577)
(0.00102694 0.000564242 0.01052)
(0.00074647 0.000533452 0.0104412)
(0.00050671 0.00050671 0.0103772)
(0.000293668 0.000487505 0.0103347)
(9.60948e-05 0.000477924 0.0103139)
(-9.60948e-05 0.000477924 0.0103139)
(-0.000293668 0.000487505 0.0103347)
(-0.00050671 0.00050671 0.0103772)
(-0.00074647 0.000533452 0.0104412)
(-0.00102694 0.000564242 0.01052)
(0.00100233 0.00033076 0.0104889)
(0.00072275 0.000310911 0.0104014)
(0.000487505 0.000293668 0.0103347)
(0.000281234 0.000281234 0.0102917)
(9.18487e-05 0.00027496 0.0102709)
(-9.18487e-05 0.00027496 0.0102709)
(-0.000281234 0.000281234 0.0102917)
(-0.000487505 0.000293668 0.0103347)
(-0.00072275 0.000310911 0.0104014)
(-0.00100233 0.00033076 0.0104889)
(0.000991214 0.000108476 0.0104724)
(0.000711407 0.000101941 0.0103815)
(0.000477924 9.60948e-05 0.0103139)
(0.00027496 9.18487e-05 0.0102709)
(8.96974e-05 8.96974e-05 0.0102501)
(-8.96974e-05 8.96974e-05 0.0102501)
(-0.00027496 9.18488e-05 0.0102709)
(-0.000477924 9.60948e-05 0.0103139)
(-0.000711407 0.000101941 0.0103815)
(-0.000991214 0.000108476 0.0104724)
(0.000991214 -0.000108476 0.0104724)
(0.000711407 -0.000101941 0.0103815)
(0.000477924 -9.60948e-05 0.0103139)
(0.00027496 -9.18487e-05 0.0102709)
(8.96974e-05 -8.96974e-05 0.0102501)
(-8.96974e-05 -8.96974e-05 0.0102501)
(-0.00027496 -9.18487e-05 0.0102709)
(-0.000477924 -9.60948e-05 0.0103139)
(-0.000711407 -0.000101941 0.0103815)
(-0.000991214 -0.000108476 0.0104724)
(0.00100233 -0.00033076 0.0104889)
(0.00072275 -0.000310911 0.0104014)
(0.000487505 -0.000293668 0.0103347)
(0.000281234 -0.000281234 0.0102917)
(9.18487e-05 -0.00027496 0.0102709)
(-9.18487e-05 -0.00027496 0.0102709)
(-0.000281234 -0.000281234 0.0102917)
(-0.000487505 -0.000293668 0.0103347)
(-0.00072275 -0.000310911 0.0104014)
(-0.00100233 -0.00033076 0.0104889)
(0.00102694 -0.000564242 0.01052)
(0.00074647 -0.000533452 0.0104412)
(0.00050671 -0.00050671 0.0103772)
(0.000293668 -0.000487505 0.0103347)
(9.60948e-05 -0.000477924 0.0103139)
(-9.60948e-05 -0.000477924 0.0103139)
(-0.000293668 -0.000487505 0.0103347)
(-0.00050671 -0.00050671 0.0103772)
(-0.00074647 -0.000533452 0.0104412)
(-0.00102694 -0.000564242 0.01052)
(0.00105171 -0.000830993 0.0105577)
(0.00078041 -0.00078041 0.0104978)
(0.000533452 -0.00074647 0.0104412)
(0.000310911 -0.00072275 0.0104014)
(0.000101941 -0.000711407 0.0103815)
(-0.000101941 -0.000711407 0.0103815)
(-0.000310911 -0.00072275 0.0104014)
(-0.000533452 -0.00074647 0.0104412)
(-0.00078041 -0.00078041 0.0104978)
(-0.00105171 -0.000830993 0.0105577)
(0.00113087 -0.00113087 0.0105858)
(0.000830993 -0.00105171 0.0105577)
(0.000564242 -0.00102694 0.01052)
(0.00033076 -0.00100233 0.0104889)
(0.000108476 -0.000991214 0.0104724)
(-0.000108476 -0.000991214 0.0104724)
(-0.00033076 -0.00100233 0.0104889)
(-0.000564242 -0.00102694 0.01052)
(-0.000830993 -0.00105171 0.0105577)
(-0.00113087 -0.00113087 0.0105858)
(0.000513803 0.000513803 0.0123752)
(0.000409024 0.000541982 0.0122807)
(0.000292505 0.000565675 0.0121665)
(0.000176633 0.000579035 0.0120759)
(5.86944e-05 0.000586672 0.0120283)
(-5.86944e-05 0.000586672 0.0120283)
(-0.000176633 0.000579035 0.0120759)
(-0.000292505 0.000565675 0.0121665)
(-0.000409024 0.000541982 0.0122807)
(-0.000513803 0.000513803 0.0123752)
(0.000541982 0.000409024 0.0122807)
(0.00043041 0.00043041 0.0120976)
(0.000309658 0.000446358 0.0119316)
(0.000186887 0.000455918 0.0118161)
(6.23463e-05 0.000461121 0.0117583)
(-6.23463e-05 0.000461121 0.0117583)
(-0.000186887 0.000455918 0.0118161)
(-0.000309658 0.000446358 0.0119316)
(-0.00043041 0.00043041 0.0120976)
(-0.000541982 0.000409024 0.0122807)
(0.000565675 0.000292505 0.0121665)
(0.000446358 0.000309658 0.0119316)
(0.000321563 0.000321563 0.0117434)
(0.000194089 0.00032872 0.011619)
(6.48481e-05 0.000332397 0.0115579)
(-6.48481e-05 0.000332397 0.0115579)
(-0.000194089 0.00032872 0.011619)
(-0.000321563 0.000321563 0.0117434)
(-0.000446358 0.000309658 0.0119316)
(-0.000565675 0.000292505 0.0121665)
(0.000579035 0.000176633 0.0120759)
(0.000455918 0.000186887 0.0118161)
(0.00032872 0.000194089 0.011619)
(0.000198515 0.000198515 0.0114918)
(6.63831e-05 0.000200757 0.0114299)
(-6.63831e-05 0.000200757 0.0114299)
(-0.000198515 0.000198515 0.0114918)
(-0.00032872 0.000194089 0.011619)
(-0.000455918 0.000186887 0.0118161)
(-0.000579035 0.000176633 0.0120759)
(0.000586672 5.86944e-05 0.0120283)
(0.000461121 6.23463e-05 0.0117583)
(0.000332397 6.48481e-05 0.0115579)
(0.000200757 6.63831e-05 0.0114299)
(6.71534e-05 6.71534e-05 0.0113679)
(-6.71534e-05 6.71534e-05 0.0113679)
(-0.000200757 6.63831e-05 0.0114299)
(-0.000332397 6.48481e-05 0.0115579)
(-0.000461121 6.23463e-05 0.0117583)
(-0.000586672 5.86944e-05 0.0120283)
(0.000586672 -5.86944e-05 0.0120283)
(0.000461121 -6.23463e-05 0.0117583)
(0.000332397 -6.48481e-05 0.0115579)
(0.000200757 -6.63831e-05 0.0114299)
(6.71534e-05 -6.71534e-05 0.0113679)
(-6.71534e-05 -6.71534e-05 0.0113679)
(-0.000200757 -6.63831e-05 0.0114299)
(-0.000332397 -6.48481e-05 0.0115579)
(-0.000461121 -6.23463e-05 0.0117583)
(-0.000586672 -5.86944e-05 0.0120283)
(0.000579035 -0.000176633 0.0120759)
(0.000455918 -0.000186887 0.0118161)
(0.00032872 -0.000194089 0.011619)
(0.000198515 -0.000198515 0.0114918)
(6.63831e-05 -0.000200757 0.0114299)
(-6.63831e-05 -0.000200757 0.0114299)
(-0.000198515 -0.000198515 0.0114918)
(-0.00032872 -0.000194089 0.011619)
(-0.000455918 -0.000186887 0.0118161)
(-0.000579035 -0.000176633 0.0120759)
(0.000565675 -0.000292505 0.0121665)
(0.000446358 -0.000309658 0.0119316)
(0.000321563 -0.000321563 0.0117434)
(0.000194089 -0.00032872 0.011619)
(6.48481e-05 -0.000332397 0.0115579)
(-6.48481e-05 -0.000332397 0.0115579)
(-0.000194089 -0.00032872 0.011619)
(-0.000321563 -0.000321563 0.0117434)
(-0.000446358 -0.000309658 0.0119316)
(-0.000565675 -0.000292505 0.0121665)
(0.000541982 -0.000409024 0.0122807)
(0.00043041 -0.00043041 0.0120976)
(0.000309658 -0.000446358 0.0119316)
(0.000186887 -0.000455918 0.0118161)
(6.23463e-05 -0.000461121 0.0117583)
(-6.23463e-05 -0.000461121 0.0117583)
(-0.000186887 -0.000455918 0.0118161)
(-0.000309658 -0.000446358 0.0119316)
(-0.00043041 -0.00043041 0.0120976)
(-0.000541982 -0.000409024 0.0122807)
(0.000513803 -0.000513803 0.0123752)
(0.000409024 -0.000541982 0.0122807)
(0.000292505 -0.000565675 0.0121665)
(0.000176633 -0.000579035 0.0120759)
(5.86944e-05 -0.000586672 0.0120283)
(-5.86944e-05 -0.000586672 0.0120283)
(-0.000176633 -0.000579035 0.0120759)
(-0.000292505 -0.000565675 0.0121665)
(-0.000409024 -0.000541982 0.0122807)
(-0.000513803 -0.000513803 0.0123752)
(0.000291743 0.000291743 0.0122204)
(0.000246078 0.000325028 0.0122732)
(0.000185987 0.00035137 0.0122569)
(0.000115904 0.000368149 0.0122275)
(3.91374e-05 0.000376956 0.0122094)
(-3.91374e-05 0.000376956 0.0122094)
(-0.000115904 0.000368149 0.0122275)
(-0.000185987 0.00035137 0.0122569)
(-0.000246078 0.000325028 0.0122732)
(-0.000291743 0.000291743 0.0122204)
(0.000325028 0.000246078 0.0122732)
(0.000277178 0.000277178 0.0122339)
(0.000210122 0.000299389 0.0121653)
(0.000130862 0.00031319 0.0121109)
(4.43072e-05 0.000320151 0.0120824)
(-4.43072e-05 0.000320151 0.0120824)
(-0.000130862 0.00031319 0.0121109)
(-0.000210122 0.000299389 0.0121653)
(-0.000277178 0.000277178 0.0122339)
(-0.000325028 0.000246078 0.0122732)
(0.00035137 0.000185987 0.0122569)
(0.000299389 0.000210122 0.0121653)
(0.000226833 0.000226833 0.0120734)
(0.000141026 0.000236924 0.0120088)
(4.77584e-05 0.000241825 0.0119764)
(-4.77583e-05 0.000241825 0.0119764)
(-0.000141025 0.000236924 0.0120088)
(-0.000226833 0.000226833 0.0120734)
(-0.000299389 0.000210122 0.0121653)
(-0.00035137 0.000185987 0.0122569)
(0.000368149 0.000115904 0.0122275)
(0.00031319 0.000130862 0.0121109)
(0.000236924 0.000141026 0.0120088)
(0.000147068 0.000147068 0.0119399)
(4.97851e-05 0.00014994 0.0119058)
(-4.97851e-05 0.00014994 0.0119058)
(-0.000147068 0.000147068 0.0119399)
(-0.000236924 0.000141025 0.0120088)
(-0.00031319 0.000130862 0.0121109)
(-0.000368149 0.000115904 0.0122275)
(0.000376956 3.91374e-05 0.0122094)
(0.000320151 4.43072e-05 0.0120824)
(0.000241825 4.77584e-05 0.0119764)
(0.00014994 4.97851e-05 0.0119058)
(5.07363e-05 5.07363e-05 0.0118709)
(-5.07363e-05 5.07363e-05 0.0118709)
(-0.00014994 4.97851e-05 0.0119058)
(-0.000241825 4.77583e-05 0.0119764)
(-0.000320151 4.43071e-05 0.0120824)
(-0.000376956 3.91374e-05 0.0122094)
(0.000376956 -3.91374e-05 0.0122094)
(0.000320151 -4.43071e-05 0.0120824)
(0.000241825 -4.77583e-05 0.0119764)
(0.00014994 -4.97851e-05 0.0119058)
(5.07363e-05 -5.07363e-05 0.0118709)
(-5.07363e-05 -5.07363e-05 0.0118709)
(-0.00014994 -4.97851e-05 0.0119058)
(-0.000241825 -4.77584e-05 0.0119764)
(-0.000320151 -4.43072e-05 0.0120824)
(-0.000376956 -3.91374e-05 0.0122094)
(0.000368149 -0.000115904 0.0122275)
(0.00031319 -0.000130862 0.0121109)
(0.000236924 -0.000141025 0.0120088)
(0.000147068 -0.000147068 0.0119399)
(4.97851e-05 -0.00014994 0.0119058)
(-4.97851e-05 -0.00014994 0.0119058)
(-0.000147068 -0.000147068 0.0119399)
(-0.000236924 -0.000141025 0.0120088)
(-0.00031319 -0.000130862 0.0121109)
(-0.000368149 -0.000115904 0.0122275)
(0.00035137 -0.000185987 0.0122569)
(0.000299389 -0.000210122 0.0121653)
(0.000226833 -0.000226833 0.0120734)
(0.000141025 -0.000236924 0.0120088)
(4.77583e-05 -0.000241825 0.0119764)
(-4.77584e-05 -0.000241825 0.0119764)
(-0.000141025 -0.000236924 0.0120088)
(-0.000226833 -0.000226833 0.0120734)
(-0.000299389 -0.000210122 0.0121653)
(-0.00035137 -0.000185987 0.0122569)
(0.000325028 -0.000246078 0.0122732)
(0.000277178 -0.000277178 0.0122339)
(0.000210122 -0.000299389 0.0121653)
(0.000130862 -0.00031319 0.0121109)
(4.43071e-05 -0.000320151 0.0120824)
(-4.43072e-05 -0.000320151 0.0120824)
(-0.000130862 -0.00031319 0.0121109)
(-0.000210122 -0.000299389 0.0121653)
(-0.000277178 -0.000277178 0.0122339)
(-0.000325028 -0.000246078 0.0122732)
(0.000291743 -0.000291743 0.0122204)
(0.000246078 -0.000325028 0.0122732)
(0.000185987 -0.00035137 0.0122569)
(0.000115904 -0.000368149 0.0122275)
(3.91374e-05 -0.000376956 0.0122094)
(-3.91374e-05 -0.000376956 0.0122094)
(-0.000115904 -0.000368149 0.0122275)
(-0.000185987 -0.00035137 0.0122569)
(-0.000246078 -0.000325028 0.0122732)
(-0.000291743 -0.000291743 0.0122204)
(9.65042e-05 9.65042e-05 0.0123022)
(8.77848e-05 0.000120089 0.0124025)
(7.08136e-05 0.000137949 0.0124231)
(4.56859e-05 0.000150334 0.0124184)
(1.56852e-05 0.000156794 0.0124124)
(-1.56852e-05 0.000156794 0.0124124)
(-4.56859e-05 0.000150334 0.0124184)
(-7.08136e-05 0.000137949 0.0124231)
(-8.77848e-05 0.000120089 0.0124025)
(-9.65042e-05 9.65042e-05 0.0123022)
(0.000120089 8.77848e-05 0.0124025)
(0.000110541 0.000110541 0.0124216)
(8.87057e-05 0.000127668 0.012396)
(5.71583e-05 0.00013901 0.0123691)
(1.96674e-05 0.00014479 0.012354)
(-1.96674e-05 0.00014479 0.012354)
(-5.71583e-05 0.00013901 0.0123691)
(-8.87057e-05 0.000127668 0.012396)
(-0.000110541 0.000110541 0.0124216)
(-0.000120089 8.77848e-05 0.0124025)
(0.000137949 7.08136e-05 0.0124231)
(0.000127668 8.87057e-05 0.012396)
(0.000102288 0.000102288 0.0123494)
(6.57676e-05 0.00011115 0.0123133)
(2.26313e-05 0.000115591 0.0122945)
(-2.26312e-05 0.000115591 0.0122945)
(-6.57675e-05 0.00011115 0.0123133)
(-0.000102288 0.000102288 0.0123494)
(-0.000127668 8.87058e-05 0.012396)
(-0.000137949 7.08136e-05 0.0124231)
(0.000150334 4.56859e-05 0.0124184)
(0.00013901 5.71583e-05 0.0123691)
(0.00011115 6.57676e-05 0.0123133)
(7.13517e-05 7.13517e-05 0.012273)
(2.45445e-05 7.41261e-05 0.0122525)
(-2.45445e-05 7.41261e-05 0.0122525)
(-7.13517e-05 7.13517e-05 0.012273)
(-0.00011115 6.57676e-05 0.0123133)
(-0.00013901 5.71583e-05 0.0123691)
(-0.000150334 4.56858e-05 0.0124184)
(0.000156794 1.56852e-05 0.0124124)
(0.00014479 1.96674e-05 0.012354)
(0.000115591 2.26313e-05 0.0122945)
(7.41261e-05 2.45445e-05 0.0122525)
(2.54901e-05 2.54901e-05 0.0122312)
(-2.54901e-05 2.54901e-05 0.0122312)
(-7.41261e-05 2.45445e-05 0.0122525)
(-0.000115591 2.26312e-05 0.0122945)
(-0.00014479 1.96674e-05 0.012354)
(-0.000156794 1.56852e-05 0.0124124)
(0.000156794 -1.56852e-05 0.0124124)
(0.00014479 -1.96674e-05 0.012354)
(0.000115591 -2.26312e-05 0.0122945)
(7.41261e-05 -2.45445e-05 0.0122525)
(2.54901e-05 -2.54901e-05 0.0122312)
(-2.54901e-05 -2.54901e-05 0.0122312)
(-7.41261e-05 -2.45445e-05 0.0122525)
(-0.000115591 -2.26312e-05 0.0122945)
(-0.00014479 -1.96674e-05 0.012354)
(-0.000156794 -1.56852e-05 0.0124124)
(0.000150334 -4.56858e-05 0.0124184)
(0.00013901 -5.71583e-05 0.0123691)
(0.00011115 -6.57675e-05 0.0123133)
(7.13517e-05 -7.13517e-05 0.012273)
(2.45445e-05 -7.41261e-05 0.0122525)
(-2.45445e-05 -7.41261e-05 0.0122525)
(-7.13517e-05 -7.13517e-05 0.012273)
(-0.00011115 -6.57675e-05 0.0123133)
(-0.00013901 -5.71583e-05 0.0123691)
(-0.000150334 -4.56858e-05 0.0124184)
(0.000137949 -7.08136e-05 0.0124231)
(0.000127668 -8.87057e-05 0.012396)
(0.000102288 -0.000102288 0.0123494)
(6.57676e-05 -0.00011115 0.0123133)
(2.26312e-05 -0.000115591 0.0122945)
(-2.26312e-05 -0.000115591 0.0122945)
(-6.57675e-05 -0.00011115 0.0123133)
(-0.000102288 -0.000102288 0.0123494)
(-0.000127668 -8.87057e-05 0.012396)
(-0.000137949 -7.08135e-05 0.0124231)
(0.000120089 -8.77848e-05 0.0124025)
(0.000110541 -0.000110541 0.0124216)
(8.87058e-05 -0.000127668 0.012396)
(5.71583e-05 -0.00013901 0.0123691)
(1.96674e-05 -0.00014479 0.012354)
(-1.96674e-05 -0.00014479 0.012354)
(-5.71583e-05 -0.00013901 0.0123691)
(-8.87057e-05 -0.000127668 0.012396)
(-0.000110541 -0.000110541 0.0124216)
(-0.000120089 -8.77848e-05 0.0124025)
(9.65042e-05 -9.65042e-05 0.0123022)
(8.77848e-05 -0.000120089 0.0124025)
(7.08136e-05 -0.000137949 0.0124231)
(4.56858e-05 -0.000150334 0.0124184)
(1.56852e-05 -0.000156794 0.0124124)
(-1.56852e-05 -0.000156794 0.0124124)
(-4.56859e-05 -0.000150334 0.0124184)
(-7.08135e-05 -0.000137949 0.0124231)
(-8.77848e-05 -0.000120089 0.0124025)
(-9.65042e-05 -9.65042e-05 0.0123022)
(3.25486e-05 3.25486e-05 0.0122703)
(3.04225e-05 4.18272e-05 0.0123974)
(2.53471e-05 4.91186e-05 0.0124408)
(1.65993e-05 5.44398e-05 0.0124525)
(5.74206e-06 5.72425e-05 0.0124548)
(-5.74206e-06 5.72425e-05 0.0124548)
(-1.65993e-05 5.44398e-05 0.0124525)
(-2.5347e-05 4.91186e-05 0.0124408)
(-3.04225e-05 4.18272e-05 0.0123974)
(-3.25486e-05 3.25486e-05 0.0122703)
(4.18272e-05 3.04225e-05 0.0123974)
(4.01768e-05 4.01768e-05 0.0124527)
(3.32534e-05 4.78006e-05 0.0124562)
(2.18134e-05 5.30757e-05 0.0124493)
(7.57051e-06 5.58183e-05 0.0124443)
(-7.5705e-06 5.58183e-05 0.0124443)
(-2.18134e-05 5.30757e-05 0.0124493)
(-3.32534e-05 4.78007e-05 0.0124562)
(-4.01769e-05 4.01768e-05 0.0124527)
(-4.18272e-05 3.04225e-05 0.0123974)
(4.91186e-05 2.53471e-05 0.0124408)
(4.78006e-05 3.32534e-05 0.0124562)
(3.96037e-05 3.96037e-05 0.0124426)
(2.59886e-05 4.39627e-05 0.0124286)
(9.03117e-06 4.62072e-05 0.0124207)
(-9.03115e-06 4.62072e-05 0.0124207)
(-2.59885e-05 4.39627e-05 0.0124286)
(-3.96037e-05 3.96037e-05 0.0124426)
(-4.78006e-05 3.32534e-05 0.0124562)
(-4.91186e-05 2.53471e-05 0.0124408)
(5.44398e-05 1.65993e-05 0.0124525)
(5.30756e-05 2.18134e-05 0.0124493)
(4.39627e-05 2.59886e-05 0.0124286)
(2.88459e-05 2.88459e-05 0.0124114)
(1.00284e-05 3.03095e-05 0.0124022)
(-1.00284e-05 3.03095e-05 0.0124022)
(-2.88458e-05 2.88459e-05 0.0124114)
(-4.39626e-05 2.59885e-05 0.0124286)
(-5.30757e-05 2.18134e-05 0.0124493)
(-5.44398e-05 1.65993e-05 0.0124525)
(5.72425e-05 5.74205e-06 0.0124548)
(5.58183e-05 7.57052e-06 0.0124443)
(4.62072e-05 9.03117e-06 0.0124207)
(3.03095e-05 1.00284e-05 0.0124022)
(1.05377e-05 1.05377e-05 0.0123925)
(-1.05377e-05 1.05377e-05 0.0123925)
(-3.03095e-05 1.00284e-05 0.0124022)
(-4.62072e-05 9.03115e-06 0.0124207)
(-5.58182e-05 7.5705e-06 0.0124443)
(-5.72425e-05 5.74206e-06 0.0124548)
(5.72425e-05 -5.74206e-06 0.0124548)
(5.58183e-05 -7.57049e-06 0.0124443)
(4.62072e-05 -9.03114e-06 0.0124207)
(3.03095e-05 -1.00284e-05 0.0124022)
(1.05377e-05 -1.05377e-05 0.0123925)
(-1.05377e-05 -1.05377e-05 0.0123925)
(-3.03095e-05 -1.00284e-05 0.0124022)
(-4.62072e-05 -9.03116e-06 0.0124207)
(-5.58182e-05 -7.57051e-06 0.0124443)
(-5.72425e-05 -5.74206e-06 0.0124548)
(5.44398e-05 -1.65993e-05 0.0124525)
(5.30757e-05 -2.18134e-05 0.0124493)
(4.39626e-05 -2.59885e-05 0.0124286)
(2.88459e-05 -2.88458e-05 0.0124114)
(1.00284e-05 -3.03095e-05 0.0124022)
(-1.00284e-05 -3.03095e-05 0.0124022)
(-2.88459e-05 -2.88459e-05 0.0124114)
(-4.39626e-05 -2.59885e-05 0.0124286)
(-5.30756e-05 -2.18134e-05 0.0124493)
(-5.44398e-05 -1.65993e-05 0.0124525)
(4.91186e-05 -2.53471e-05 0.0124408)
(4.78007e-05 -3.32534e-05 0.0124562)
(3.96037e-05 -3.96037e-05 0.0124426)
(2.59885e-05 -4.39626e-05 0.0124286)
(9.03115e-06 -4.62072e-05 0.0124207)
(-9.03116e-06 -4.62072e-05 0.0124207)
(-2.59885e-05 -4.39626e-05 0.0124286)
(-3.96037e-05 -3.96037e-05 0.0124426)
(-4.78006e-05 -3.32534e-05 0.0124562)
(-4.91186e-05 -2.5347e-05 0.0124408)
(4.18272e-05 -3.04225e-05 0.0123974)
(4.01769e-05 -4.01769e-05 0.0124527)
(3.32534e-05 -4.78007e-05 0.0124562)
(2.18134e-05 -5.30757e-05 0.0124493)
(7.5705e-06 -5.58182e-05 0.0124443)
(-7.57051e-06 -5.58182e-05 0.0124443)
(-2.18134e-05 -5.30756e-05 0.0124493)
(-3.32534e-05 -4.78006e-05 0.0124562)
(-4.01768e-05 -4.01768e-05 0.0124527)
(-4.18272e-05 -3.04225e-05 0.0123974)
(3.25486e-05 -3.25486e-05 0.0122703)
(3.04225e-05 -4.18272e-05 0.0123974)
(2.53471e-05 -4.91186e-05 0.0124408)
(1.65993e-05 -5.44398e-05 0.0124525)
(5.74206e-06 -5.72425e-05 0.0124548)
(-5.74206e-06 -5.72425e-05 0.0124548)
(-1.65993e-05 -5.44398e-05 0.0124525)
(-2.53471e-05 -4.91186e-05 0.0124408)
(-3.04225e-05 -4.18272e-05 0.0123974)
(-3.25486e-05 -3.25486e-05 0.0122703)
(1.06591e-05 1.06591e-05 0.0122494)
(1.03597e-05 1.4315e-05 0.0123837)
(8.96004e-06 1.72147e-05 0.0124343)
(5.97309e-06 1.93766e-05 0.0124515)
(2.08549e-06 2.05171e-05 0.0124568)
(-2.0855e-06 2.05171e-05 0.0124568)
(-5.97308e-06 1.93765e-05 0.0124515)
(-8.96002e-06 1.72147e-05 0.0124343)
(-1.03597e-05 1.4315e-05 0.0123837)
(-1.06591e-05 1.06591e-05 0.0122494)
(1.4315e-05 1.03597e-05 0.0123837)
(1.43509e-05 1.43509e-05 0.0124512)
(1.22409e-05 1.75229e-05 0.0124657)
(8.16639e-06 1.97633e-05 0.0124669)
(2.8571e-06 2.09347e-05 0.0124661)
(-2.85711e-06 2.09348e-05 0.0124661)
(-8.1664e-06 1.97633e-05 0.0124669)
(-1.22409e-05 1.75229e-05 0.0124657)
(-1.43509e-05 1.43509e-05 0.0124512)
(-1.4315e-05 1.03597e-05 0.0123837)
(1.72147e-05 8.96004e-06 0.0124343)
(1.75229e-05 1.22409e-05 0.0124657)
(1.49424e-05 1.49424e-05 0.012466)
(9.97064e-06 1.6837e-05 0.0124618)
(3.49204e-06 1.78221e-05 0.012459)
(-3.49204e-06 1.78221e-05 0.012459)
(-9.97065e-06 1.6837e-05 0.0124618)
(-1.49424e-05 1.49424e-05 0.012466)
(-1.75228e-05 1.22409e-05 0.0124657)
(-1.72147e-05 8.96003e-06 0.0124343)
(1.93766e-05 5.97309e-06 0.0124515)
(1.97633e-05 8.16639e-06 0.0124669)
(1.6837e-05 9.97063e-06 0.0124618)
(1.1232e-05 1.1232e-05 0.0124556)
(3.93538e-06 1.18855e-05 0.0124521)
(-3.93537e-06 1.18855e-05 0.0124521)
(-1.1232e-05 1.1232e-05 0.0124556)
(-1.6837e-05 9.97065e-06 0.0124618)
(-1.97632e-05 8.1664e-06 0.0124669)
(-1.93765e-05 5.97308e-06 0.0124515)
(2.05171e-05 2.08549e-06 0.0124568)
(2.09347e-05 2.8571e-06 0.0124661)
(1.78221e-05 3.49204e-06 0.012459)
(1.18855e-05 3.93537e-06 0.0124521)
(4.16457e-06 4.16457e-06 0.0124483)
(-4.16456e-06 4.16457e-06 0.0124483)
(-1.18855e-05 3.93538e-06 0.0124521)
(-1.78221e-05 3.49205e-06 0.012459)
(-2.09347e-05 2.85711e-06 0.0124661)
(-2.05171e-05 2.08549e-06 0.0124568)
(2.05171e-05 -2.08549e-06 0.0124568)
(2.09347e-05 -2.8571e-06 0.0124661)
(1.78221e-05 -3.49204e-06 0.012459)
(1.18855e-05 -3.93537e-06 0.0124521)
(4.16458e-06 -4.16456e-06 0.0124483)
(-4.16456e-06 -4.16456e-06 0.0124483)
(-1.18855e-05 -3.93537e-06 0.0124521)
(-1.78221e-05 -3.49204e-06 0.012459)
(-2.09347e-05 -2.8571e-06 0.0124661)
(-2.05171e-05 -2.0855e-06 0.0124568)
(1.93765e-05 -5.97307e-06 0.0124515)
(1.97632e-05 -8.16638e-06 0.0124669)
(1.6837e-05 -9.97063e-06 0.0124618)
(1.1232e-05 -1.1232e-05 0.0124556)
(3.93538e-06 -1.18855e-05 0.0124521)
(-3.93537e-06 -1.18855e-05 0.0124521)
(-1.1232e-05 -1.1232e-05 0.0124556)
(-1.6837e-05 -9.97063e-06 0.0124618)
(-1.97632e-05 -8.16639e-06 0.0124669)
(-1.93765e-05 -5.97308e-06 0.0124515)
(1.72147e-05 -8.96002e-06 0.0124343)
(1.75229e-05 -1.22409e-05 0.0124657)
(1.49424e-05 -1.49423e-05 0.012466)
(9.97065e-06 -1.6837e-05 0.0124618)
(3.49204e-06 -1.78221e-05 0.012459)
(-3.49203e-06 -1.78221e-05 0.012459)
(-9.97063e-06 -1.6837e-05 0.0124618)
(-1.49424e-05 -1.49423e-05 0.012466)
(-1.75229e-05 -1.22409e-05 0.0124657)
(-1.72147e-05 -8.96002e-06 0.0124343)
(1.4315e-05 -1.03597e-05 0.0123837)
(1.43509e-05 -1.43509e-05 0.0124512)
(1.22409e-05 -1.75228e-05 0.0124657)
(8.16638e-06 -1.97632e-05 0.0124669)
(2.8571e-06 -2.09347e-05 0.0124661)
(-2.85709e-06 -2.09347e-05 0.0124661)
(-8.16638e-06 -1.97633e-05 0.0124669)
(-1.22409e-05 -1.75229e-05 0.0124657)
(-1.43509e-05 -1.43509e-05 0.0124512)
(-1.4315e-05 -1.03597e-05 0.0123837)
(1.06591e-05 -1.06591e-05 0.0122494)
(1.03597e-05 -1.4315e-05 0.0123837)
(8.96002e-06 -1.72147e-05 0.0124343)
(5.97307e-06 -1.93765e-05 0.0124515)
(2.08549e-06 -2.05171e-05 0.0124568)
(-2.0855e-06 -2.05171e-05 0.0124568)
(-5.9731e-06 -1.93766e-05 0.0124515)
(-8.96004e-06 -1.72147e-05 0.0124343)
(-1.03597e-05 -1.4315e-05 0.0123837)
(-1.06591e-05 -1.06591e-05 0.0122494)
(3.15757e-06 3.15756e-06 0.0122431)
(3.20969e-06 4.52488e-06 0.0123792)
(2.88808e-06 5.61677e-06 0.0124321)
(1.96074e-06 6.46137e-06 0.0124511)
(6.91393e-07 6.9063e-06 0.0124573)
(-6.91394e-07 6.9063e-06 0.0124573)
(-1.96074e-06 6.46138e-06 0.0124511)
(-2.88808e-06 5.6168e-06 0.0124321)
(-3.20969e-06 4.5249e-06 0.0123792)
(-3.15757e-06 3.15756e-06 0.0122431)
(4.52488e-06 3.20969e-06 0.0123792)
(4.73982e-06 4.73982e-06 0.0124507)
(4.17437e-06 5.99386e-06 0.0124689)
(2.83585e-06 6.90512e-06 0.0124728)
(1.00097e-06 7.38666e-06 0.0124735)
(-1.00096e-06 7.38667e-06 0.0124735)
(-2.83583e-06 6.90514e-06 0.0124728)
(-4.17437e-06 5.9939e-06 0.0124689)
(-4.73985e-06 4.73986e-06 0.0124507)
(-4.52489e-06 3.2097e-06 0.0123792)
(5.61676e-06 2.88808e-06 0.0124321)
(5.99385e-06 4.17437e-06 0.0124689)
(5.27319e-06 5.27319e-06 0.012474)
(3.58379e-06 6.06594e-06 0.0124734)
(1.26621e-06 6.48363e-06 0.0124725)
(-1.26619e-06 6.48363e-06 0.0124725)
(-3.58376e-06 6.06593e-06 0.0124734)
(-5.27317e-06 5.27319e-06 0.012474)
(-5.99389e-06 4.17439e-06 0.0124689)
(-5.61679e-06 2.88809e-06 0.0124321)
(6.46136e-06 1.96074e-06 0.0124511)
(6.90512e-06 2.83586e-06 0.0124728)
(6.06594e-06 3.5838e-06 0.0124734)
(4.12159e-06 4.1216e-06 0.0124714)
(1.45678e-06 4.40421e-06 0.0124701)
(-1.45676e-06 4.40421e-06 0.0124701)
(-4.12157e-06 4.12159e-06 0.0124714)
(-6.06592e-06 3.58377e-06 0.0124734)
(-6.90513e-06 2.83585e-06 0.0124728)
(-6.46138e-06 1.96075e-06 0.0124511)
(6.9063e-06 6.91393e-07 0.0124573)
(7.38666e-06 1.00098e-06 0.0124735)
(6.48363e-06 1.26621e-06 0.0124725)
(4.4042e-06 1.45678e-06 0.0124701)
(1.55676e-06 1.55677e-06 0.0124686)
(-1.55675e-06 1.55677e-06 0.0124686)
(-4.40419e-06 1.45677e-06 0.0124701)
(-6.48362e-06 1.2662e-06 0.0124725)
(-7.38666e-06 1.00097e-06 0.0124735)
(-6.9063e-06 6.91402e-07 0.0124573)
(6.9063e-06 -6.91398e-07 0.0124573)
(7.38667e-06 -1.00096e-06 0.0124735)
(6.48363e-06 -1.26619e-06 0.0124725)
(4.4042e-06 -1.45676e-06 0.0124701)
(1.55676e-06 -1.55675e-06 0.0124686)
(-1.55676e-06 -1.55675e-06 0.0124686)
(-4.4042e-06 -1.45677e-06 0.0124701)
(-6.48362e-06 -1.2662e-06 0.0124725)
(-7.38665e-06 -1.00097e-06 0.0124735)
(-6.9063e-06 -6.91402e-07 0.0124573)
(6.46137e-06 -1.96074e-06 0.0124511)
(6.90514e-06 -2.83584e-06 0.0124728)
(6.06593e-06 -3.58376e-06 0.0124734)
(4.12159e-06 -4.12158e-06 0.0124714)
(1.45677e-06 -4.4042e-06 0.0124701)
(-1.45677e-06 -4.40419e-06 0.0124701)
(-4.12158e-06 -4.12158e-06 0.0124714)
(-6.06592e-06 -3.58377e-06 0.0124734)
(-6.90512e-06 -2.83586e-06 0.0124728)
(-6.46137e-06 -1.96076e-06 0.0124511)
(5.61679e-06 -2.88808e-06 0.0124321)
(5.99389e-06 -4.17437e-06 0.0124689)
(5.27318e-06 -5.27318e-06 0.012474)
(3.58377e-06 -6.06593e-06 0.0124734)
(1.2662e-06 -6.48362e-06 0.0124725)
(-1.2662e-06 -6.48362e-06 0.0124725)
(-3.58377e-06 -6.06592e-06 0.0124734)
(-5.27319e-06 -5.27319e-06 0.012474)
(-5.99389e-06 -4.1744e-06 0.0124689)
(-5.61677e-06 -2.88809e-06 0.0124321)
(4.52491e-06 -3.2097e-06 0.0123792)
(4.73985e-06 -4.73986e-06 0.0124507)
(4.17438e-06 -5.99389e-06 0.0124689)
(2.83585e-06 -6.90513e-06 0.0124728)
(1.00097e-06 -7.38665e-06 0.0124735)
(-1.00097e-06 -7.38665e-06 0.0124735)
(-2.83585e-06 -6.90512e-06 0.0124728)
(-4.1744e-06 -5.99388e-06 0.0124689)
(-4.73984e-06 -4.73984e-06 0.0124507)
(-4.52487e-06 -3.20967e-06 0.0123792)
(3.15758e-06 -3.15757e-06 0.0122431)
(3.20969e-06 -4.5249e-06 0.0123792)
(2.88809e-06 -5.61679e-06 0.0124321)
(1.96076e-06 -6.46138e-06 0.0124511)
(6.91409e-07 -6.9063e-06 0.0124573)
(-6.914e-07 -6.9063e-06 0.0124573)
(-1.96075e-06 -6.46137e-06 0.0124511)
(-2.88809e-06 -5.61677e-06 0.0124321)
(-3.20968e-06 -4.52487e-06 0.0123792)
(-3.15756e-06 -3.15755e-06 0.0122431)
(9.35231e-07 9.35232e-07 0.0122408)
(9.81068e-07 1.40097e-06 0.0123776)
(9.06438e-07 1.77439e-06 0.0124312)
(6.21859e-07 2.07391e-06 0.0124508)
(2.20891e-07 2.2315e-06 0.0124574)
(-2.2089e-07 2.23149e-06 0.0124574)
(-6.21852e-07 2.0739e-06 0.0124508)
(-9.06427e-07 1.77437e-06 0.0124312)
(-9.81068e-07 1.40097e-06 0.0123776)
(-9.35226e-07 9.35231e-07 0.0122408)
(1.40097e-06 9.81061e-07 0.0123776)
(1.51408e-06 1.51408e-06 0.0124504)
(1.36446e-06 1.96308e-06 0.0124698)
(9.38604e-07 2.29853e-06 0.0124749)
(3.33493e-07 2.47773e-06 0.0124761)
(-3.33502e-07 2.47773e-06 0.0124761)
(-9.38611e-07 2.29852e-06 0.0124749)
(-1.36445e-06 1.96307e-06 0.0124698)
(-1.51407e-06 1.51407e-06 0.0124504)
(-1.40097e-06 9.81069e-07 0.0123776)
(1.77439e-06 9.06432e-07 0.0124312)
(1.96309e-06 1.36446e-06 0.0124698)
(1.76942e-06 1.76941e-06 0.0124768)
(1.21978e-06 2.07008e-06 0.0124776)
(4.34013e-07 2.23076e-06 0.0124775)
(-4.34022e-07 2.23076e-06 0.0124775)
(-1.21978e-06 2.07008e-06 0.0124776)
(-1.76941e-06 1.76942e-06 0.0124768)
(-1.96307e-06 1.36446e-06 0.0124698)
(-1.77437e-06 9.06437e-07 0.0124312)
(2.07391e-06 6.21859e-07 0.0124508)
(2.29854e-06 9.38606e-07 0.0124749)
(2.07008e-06 1.21978e-06 0.0124776)
(1.42799e-06 1.42799e-06 0.0124772)
(5.08467e-07 1.53912e-06 0.0124767)
(-5.08471e-07 1.53912e-06 0.0124767)
(-1.42799e-06 1.428e-06 0.0124772)
(-2.07008e-06 1.21979e-06 0.0124776)
(-2.29852e-06 9.38613e-07 0.0124749)
(-2.0739e-06 6.21865e-07 0.0124508)
(2.2315e-06 2.20893e-07 0.0124574)
(2.47773e-06 3.3349e-07 0.0124761)
(2.23076e-06 4.34007e-07 0.0124775)
(1.53912e-06 5.08465e-07 0.0124767)
(5.48178e-07 5.48176e-07 0.0124762)
(-5.48173e-07 5.4818e-07 0.0124762)
(-1.53912e-06 5.08476e-07 0.0124767)
(-2.23076e-06 4.34024e-07 0.0124775)
(-2.47772e-06 3.33502e-07 0.0124761)
(-2.23149e-06 2.20894e-07 0.0124574)
(2.23149e-06 -2.20894e-07 0.0124574)
(2.47773e-06 -3.33502e-07 0.0124761)
(2.23077e-06 -4.34018e-07 0.0124775)
(1.53912e-06 -5.08468e-07 0.0124767)
(5.48182e-07 -5.48171e-07 0.0124762)
(-5.48171e-07 -5.48169e-07 0.0124762)
(-1.53911e-06 -5.08463e-07 0.0124767)
(-2.23076e-06 -4.34011e-07 0.0124775)
(-2.47772e-06 -3.33499e-07 0.0124761)
(-2.23149e-06 -2.209e-07 0.0124574)
(2.0739e-06 -6.21856e-07 0.0124508)
(2.29853e-06 -9.38607e-07 0.0124749)
(2.07008e-06 -1.21978e-06 0.0124776)
(1.428e-06 -1.42799e-06 0.0124772)
(5.08477e-07 -1.53911e-06 0.0124767)
(-5.08465e-07 -1.53911e-06 0.0124767)
(-1.42799e-06 -1.42799e-06 0.0124772)
(-2.07008e-06 -1.21978e-06 0.0124776)
(-2.29852e-06 -9.38612e-07 0.0124749)
(-2.0739e-06 -6.21864e-07 0.0124508)
(1.77437e-06 -9.06422e-07 0.0124312)
(1.96307e-06 -1.36445e-06 0.0124698)
(1.76942e-06 -1.76941e-06 0.0124768)
(1.21979e-06 -2.07007e-06 0.0124776)
(4.34024e-07 -2.23075e-06 0.0124775)
(-4.34017e-07 -2.23076e-06 0.0124775)
(-1.21978e-06 -2.07008e-06 0.0124776)
(-1.76941e-06 -1.76941e-06 0.0124768)
(-1.96307e-06 -1.36446e-06 0.0124698)
(-1.77438e-06 -9.06432e-07 0.0124312)
(1.40097e-06 -9.81055e-07 0.0123776)
(1.51407e-06 -1.51406e-06 0.0124504)
(1.36446e-06 -1.96306e-06 0.0124698)
(9.38617e-07 -2.29851e-06 0.0124749)
(3.33495e-07 -2.47772e-06 0.0124761)
(-3.33506e-07 -2.47772e-06 0.0124761)
(-9.3861e-07 -2.29852e-06 0.0124749)
(-1.36445e-06 -1.96307e-06 0.0124698)
(-1.51407e-06 -1.51407e-06 0.0124504)
(-1.40097e-06 -9.81065e-07 0.0123776)
(9.35225e-07 -9.3522e-07 0.0122408)
(9.81065e-07 -1.40096e-06 0.0123776)
(9.06443e-07 -1.77436e-06 0.0124312)
(6.21863e-07 -2.0739e-06 0.0124508)