/*--------------------------------*- C++ -*----------------------------------*\
| =========                 |                                                 |
| \\      /  F ield         | OpenFOAM: The Open Source CFD Toolbox           |
|  \\    /   O peration     | Version:  2412                                  |
|   \\  /    A nd           | Website:  www.openfoam.com                      |
|    \\/     M anipulation  |                                                 |
\*---------------------------------------------------------------------------*/
FoamFile
{
    version     2.0;
    format      ascii;
    arch        "LSB;label=32;scalar=64";
    class       surfaceScalarField;
    location    "9.8";
    object      phi;
}
// * * * * * * * * * * * * * * * * * * * * * * * * * * * * * * * * * * * * * //

dimensions      [0 3 -1 0 0 0 0];

oriented        oriented;

internalField   nonuniform List<scalar> 
43700
(
1.8262e-07
1.8262e-07
5.4999e-07
-2.22606e-07
-2.22606e-07
1.34851e-07
1.61517e-07
5.93517e-07
-1.97881e-07
8.92292e-08
1.47993e-07
6.24351e-07
-1.87292e-07
4.42586e-08
1.39049e-07
6.44143e-07
-1.78509e-07
-9.89782e-17
1.34773e-07
6.53879e-07
-1.74465e-07
-4.42586e-08
1.34773e-07
6.53879e-07
-1.74465e-07
-8.92292e-08
1.39049e-07
6.44143e-07
-1.78509e-07
-1.34851e-07
1.47993e-07
6.24351e-07
-1.87292e-07
-1.8262e-07
1.61517e-07
5.93517e-07
-1.97881e-07
1.8262e-07
5.4999e-07
-2.22606e-07
-2.22606e-07
1.61517e-07
1.34851e-07
5.93517e-07
-1.97881e-07
1.19971e-07
1.19971e-07
6.28935e-07
7.90353e-08
1.08842e-07
6.53777e-07
3.91509e-08
1.01502e-07
6.69928e-07
-4.67245e-17
9.79403e-08
6.77956e-07
-3.91509e-08
9.79403e-08
6.77956e-07
-7.90353e-08
1.01502e-07
6.69928e-07
-1.19971e-07
1.08842e-07
6.53777e-07
-1.61517e-07
1.19971e-07
6.28935e-07
1.34851e-07
5.93517e-07
-1.97881e-07
1.47993e-07
8.92292e-08
6.24351e-07
-1.87292e-07
1.08842e-07
7.90353e-08
6.53777e-07
7.13545e-08
7.13545e-08
6.74848e-07
3.52852e-08
6.62875e-08
6.88846e-07
-1.33998e-16
6.38141e-08
6.95889e-07
-3.52852e-08
6.38141e-08
6.95889e-07
-7.13545e-08
6.62875e-08
6.88846e-07
-1.08842e-07
7.13545e-08
6.74848e-07
-1.47993e-07
7.90353e-08
6.53777e-07
8.92292e-08
6.24351e-07
-1.87292e-07
1.39049e-07
4.42586e-08
6.44143e-07
-1.78509e-07
1.01502e-07
3.91509e-08
6.69928e-07
6.62875e-08
3.52852e-08
6.88846e-07
3.27228e-08
3.27228e-08
7.01632e-07
-4.23237e-16
3.14663e-08
7.08113e-07
-3.27228e-08
3.14663e-08
7.08113e-07
-6.62875e-08
3.27228e-08
7.01632e-07
-1.01502e-07
3.52852e-08
6.88846e-07
-1.39049e-07
3.91509e-08
6.69928e-07
4.42586e-08
6.44143e-07
-1.78509e-07
1.34773e-07
-9.27484e-17
6.53879e-07
-1.74465e-07
9.79403e-08
-1.30134e-18
6.77956e-07
6.38141e-08
-1.82996e-16
6.95889e-07
3.14663e-08
-3.24215e-16
7.08113e-07
-4.48298e-16
-4.22894e-16
7.14325e-07
-3.14663e-08
-2.40343e-16
7.14325e-07
-6.38141e-08
2.69888e-17
7.08113e-07
-9.79403e-08
7.68621e-17
6.95889e-07
-1.34773e-07
1.76698e-16
6.77956e-07
3.29198e-17
6.53879e-07
-1.74465e-07
1.34773e-07
-4.42586e-08
6.53879e-07
-1.74465e-07
9.79403e-08
-3.91509e-08
6.77956e-07
6.38141e-08
-3.52852e-08
6.95889e-07
3.14663e-08
-3.27228e-08
7.08113e-07
-2.91669e-16
-3.14663e-08
7.14325e-07
-3.14663e-08
-3.14663e-08
7.14325e-07
-6.38141e-08
-3.27228e-08
7.08113e-07
-9.79403e-08
-3.52852e-08
6.95889e-07
-1.34773e-07
-3.91509e-08
6.77956e-07
-4.42586e-08
6.53879e-07
-1.74465e-07
1.39049e-07
-8.92292e-08
6.44143e-07
-1.78509e-07
1.01502e-07
-7.90353e-08
6.69928e-07
6.62875e-08
-7.13545e-08
6.88846e-07
3.27228e-08
-6.62875e-08
7.01632e-07
1.08721e-16
-6.38141e-08
7.08113e-07
-3.27228e-08
-6.38141e-08
7.08113e-07
-6.62875e-08
-6.62875e-08
7.01632e-07
-1.01502e-07
-7.13545e-08
6.88846e-07
-1.39049e-07
-7.90353e-08
6.69928e-07
-8.92292e-08
6.44143e-07
-1.78509e-07
1.47993e-07
-1.34851e-07
6.24351e-07
-1.87292e-07
1.08842e-07
-1.19971e-07
6.53777e-07
7.13545e-08
-1.08842e-07
6.74848e-07
3.52852e-08
-1.01502e-07
6.88846e-07
5.74529e-17
-9.79403e-08
6.95889e-07
-3.52852e-08
-9.79403e-08
6.95889e-07
-7.13545e-08
-1.01502e-07
6.88846e-07
-1.08842e-07
-1.08842e-07
6.74848e-07
-1.47993e-07
-1.19971e-07
6.53777e-07
-1.34851e-07
6.24351e-07
-1.87292e-07
1.61517e-07
-1.8262e-07
5.93517e-07
-1.97881e-07
1.19971e-07
-1.61517e-07
6.28935e-07
7.90353e-08
-1.47993e-07
6.53777e-07
3.91509e-08
-1.39049e-07
6.69928e-07
-1.94435e-16
-1.34773e-07
6.77956e-07
-3.91509e-08
-1.34773e-07
6.77956e-07
-7.90353e-08
-1.39049e-07
6.69928e-07
-1.19971e-07
-1.47993e-07
6.53777e-07
-1.61517e-07
-1.61517e-07
6.28935e-07
-1.8262e-07
5.93517e-07
-1.97881e-07
1.8262e-07
5.4999e-07
-2.22606e-07
-2.22606e-07
1.34851e-07
5.93517e-07
-1.97881e-07
8.92292e-08
6.24351e-07
-1.87292e-07
4.42586e-08
6.44143e-07
-1.78509e-07
-2.82495e-16
6.53879e-07
-1.74465e-07
-4.42586e-08
6.53879e-07
-1.74465e-07
-8.92292e-08
6.44143e-07
-1.78509e-07
-1.34851e-07
6.24351e-07
-1.87292e-07
-1.8262e-07
5.93517e-07
-1.97881e-07
5.4999e-07
-2.22606e-07
-2.22606e-07
1.32217e-07
1.32217e-07
5.87132e-07
-1.50788e-07
-1.50788e-07
1.04211e-07
1.29866e-07
6.43218e-07
-1.5156e-07
7.12402e-08
1.26129e-07
6.81713e-07
-1.50519e-07
3.59737e-08
1.22512e-07
7.05465e-07
-1.48567e-07
1.86205e-16
1.20586e-07
7.16809e-07
-1.47542e-07
-3.59737e-08
1.20586e-07
7.16809e-07
-1.47542e-07
-7.12402e-08
1.22512e-07
7.05465e-07
-1.48567e-07
-1.04211e-07
1.26129e-07
6.81713e-07
-1.50519e-07
-1.32217e-07
1.29866e-07
6.43218e-07
-1.5156e-07
1.32217e-07
5.87132e-07
-1.50788e-07
-1.50788e-07
1.29866e-07
1.04211e-07
6.43218e-07
-1.5156e-07
1.00117e-07
1.00117e-07
6.88432e-07
6.7339e-08
9.54149e-08
7.17269e-07
3.36861e-08
9.15592e-08
7.34534e-07
1.7998e-16
8.95354e-08
7.42692e-07
-3.36861e-08
8.95354e-08
7.42692e-07
-6.7339e-08
9.15592e-08
7.34534e-07
-1.00117e-07
9.54149e-08
7.17269e-07
-1.29866e-07
1.00117e-07
6.88432e-07
1.04211e-07
6.43218e-07
-1.5156e-07
1.26129e-07
7.12402e-08
6.81713e-07
-1.50519e-07
9.54149e-08
6.7339e-08
7.17269e-07
6.3323e-08
6.3323e-08
7.39032e-07
3.14547e-08
6.02725e-08
7.52001e-07
-1.11388e-16
5.87006e-08
7.58179e-07
-3.14547e-08
5.87006e-08
7.58179e-07
-6.3323e-08
6.02725e-08
7.52001e-07
-9.54149e-08
6.3323e-08
7.39032e-07
-1.26129e-07
6.7339e-08
7.17269e-07
7.12402e-08
6.81713e-07
-1.50519e-07
1.22512e-07
3.59737e-08
7.05465e-07
-1.48567e-07
9.15592e-08
3.36861e-08
7.34534e-07
6.02725e-08
3.14547e-08
7.52001e-07
2.98154e-08
2.98154e-08
7.62546e-07
-3.84424e-16
2.89793e-08
7.67649e-07
-2.98154e-08
2.89793e-08
7.67649e-07
-6.02725e-08
2.98154e-08
7.62546e-07
-9.15592e-08
3.14547e-08
7.52001e-07
-1.22512e-07
3.36861e-08
7.34534e-07
3.59737e-08
7.05465e-07
-1.48567e-07
1.20586e-07
-3.15916e-16
7.16809e-07
-1.47542e-07
8.95354e-08
-2.16911e-16
7.42692e-07
5.87006e-08
-4.11063e-16
7.58179e-07
2.89793e-08
-5.04144e-16
7.67649e-07
-2.54397e-16
-1.63047e-16
7.72284e-07
-2.89793e-08
-9.30616e-17
7.72284e-07
-5.87006e-08
-1.70565e-16
7.67649e-07
-8.95354e-08
-1.67806e-16
7.58179e-07
-1.20586e-07
4.82284e-17
7.42692e-07
2.16246e-17
7.16809e-07
-1.47542e-07
1.20586e-07
-3.59737e-08
7.16809e-07
-1.47542e-07
8.95354e-08
-3.36861e-08
7.42692e-07
5.87006e-08
-3.14547e-08
7.58179e-07
2.89793e-08
-2.98154e-08
7.67649e-07
-1.61802e-16
-2.89793e-08
7.72284e-07
-2.89793e-08
-2.89793e-08
7.72284e-07
-5.87006e-08
-2.98154e-08
7.67649e-07
-8.95354e-08
-3.14547e-08
7.58179e-07
-1.20586e-07
-3.36861e-08
7.42692e-07
-3.59737e-08
7.16809e-07
-1.47542e-07
1.22512e-07
-7.12402e-08
7.05465e-07
-1.48567e-07
9.15592e-08
-6.7339e-08
7.34534e-07
6.02725e-08
-6.3323e-08
7.52001e-07
2.98154e-08
-6.02725e-08
7.62546e-07
-4.6399e-17
-5.87006e-08
7.67649e-07
-2.98154e-08
-5.87006e-08
7.67649e-07
-6.02725e-08
-6.02725e-08
7.62546e-07
-9.15592e-08
-6.3323e-08
7.52001e-07
-1.22512e-07
-6.7339e-08
7.34534e-07
-7.12402e-08
7.05465e-07
-1.48567e-07
1.26129e-07
-1.04211e-07
6.81713e-07
-1.50519e-07
9.54149e-08
-1.00117e-07
7.17269e-07
6.3323e-08
-9.54149e-08
7.39032e-07
3.14547e-08
-9.15592e-08
7.52001e-07
-3.56456e-16
-8.95354e-08
7.58179e-07
-3.14547e-08
-8.95354e-08
7.58179e-07
-6.3323e-08
-9.15592e-08
7.52001e-07
-9.54149e-08
-9.54149e-08
7.39032e-07
-1.26129e-07
-1.00117e-07
7.17269e-07
-1.04211e-07
6.81713e-07
-1.50519e-07
1.29866e-07
-1.32217e-07
6.43218e-07
-1.5156e-07
1.00117e-07
-1.29866e-07
6.88432e-07
6.7339e-08
-1.26129e-07
7.17269e-07
3.36861e-08
-1.22512e-07
7.34534e-07
-3.85974e-16
-1.20586e-07
7.42692e-07
-3.36861e-08
-1.20586e-07
7.42692e-07
-6.7339e-08
-1.22512e-07
7.34534e-07
-1.00117e-07
-1.26129e-07
7.17269e-07
-1.29866e-07
-1.29866e-07
6.88432e-07
-1.32217e-07
6.43218e-07
-1.5156e-07
1.32217e-07
5.87132e-07
-1.50788e-07
-1.50788e-07
1.04211e-07
6.43218e-07
-1.5156e-07
7.12402e-08
6.81713e-07
-1.50519e-07
3.59737e-08
7.05465e-07
-1.48567e-07
-3.58408e-17
7.16809e-07
-1.47542e-07
-3.59737e-08
7.16809e-07
-1.47542e-07
-7.12402e-08
7.05465e-07
-1.48567e-07
-1.04211e-07
6.81713e-07
-1.50519e-07
-1.32217e-07
6.43218e-07
-1.5156e-07
5.87132e-07
-1.50788e-07
-1.50788e-07
1.09723e-07
1.09723e-07
5.96971e-07
-1.14643e-07
-1.14643e-07
9.23501e-08
1.16393e-07
6.67812e-07
-1.23614e-07
6.59087e-08
1.18997e-07
7.17377e-07
-1.28221e-07
3.41534e-08
1.19327e-07
7.48174e-07
-1.30281e-07
-1.3258e-16
1.19169e-07
7.62859e-07
-1.31065e-07
-3.41534e-08
1.19169e-07
7.62859e-07
-1.31065e-07
-6.59087e-08
1.19327e-07
7.48174e-07
-1.30281e-07
-9.23501e-08
1.18997e-07
7.17377e-07
-1.28221e-07
-1.09723e-07
1.16393e-07
6.67812e-07
-1.23614e-07
1.09723e-07
5.96971e-07
-1.14643e-07
-1.14643e-07
1.16393e-07
9.23501e-08
6.67812e-07
-1.23614e-07
9.60068e-08
9.60068e-08
7.29204e-07
6.75344e-08
9.65121e-08
7.68227e-07
3.4672e-08
9.56429e-08
7.9108e-07
-3.1575e-16
9.491e-08
8.01624e-07
-3.4672e-08
9.491e-08
8.01624e-07
-6.75344e-08
9.56429e-08
7.9108e-07
-9.60068e-08
9.65121e-08
7.68227e-07
-1.16393e-07
9.60068e-08
7.29204e-07
9.23501e-08
6.67812e-07
-1.23614e-07
1.18997e-07
6.59087e-08
7.17377e-07
-1.28221e-07
9.65121e-08
6.75344e-08
7.68227e-07
6.70017e-08
6.70017e-08
7.98052e-07
3.41357e-08
6.58239e-08
8.14686e-07
-6.8577e-16
6.50298e-08
8.22195e-07
-3.41357e-08
6.50298e-08
8.22195e-07
-6.70017e-08
6.58239e-08
8.14686e-07
-9.65121e-08
6.70017e-08
7.98052e-07
-1.18997e-07
6.75344e-08
7.68227e-07
6.59087e-08
7.17377e-07
-1.28221e-07
1.19327e-07
3.41534e-08
7.48174e-07
-1.30281e-07
9.56429e-08
3.4672e-08
7.9108e-07
6.58239e-08
3.41357e-08
8.14686e-07
3.33743e-08
3.33743e-08
8.27445e-07
-6.41343e-16
3.28938e-08
8.3316e-07
-3.33743e-08
3.28938e-08
8.3316e-07
-6.58239e-08
3.33743e-08
8.27445e-07
-9.56429e-08
3.41357e-08
8.14686e-07
-1.19327e-07
3.4672e-08
7.9108e-07
3.41534e-08
7.48174e-07
-1.30281e-07
1.19169e-07
-2.48843e-16
7.62859e-07
-1.31065e-07
9.491e-08
-2.16135e-16
8.01624e-07
6.50298e-08
-8.20795e-16
8.22195e-07
3.28938e-08
-9.68839e-16
8.3316e-07
-2.388e-16
-2.52443e-16
8.38071e-07
-3.28938e-08
-1.00428e-16
8.38071e-07
-6.50298e-08
-3.00158e-16
8.3316e-07
-9.491e-08
-7.31938e-17
8.22195e-07
-1.19169e-07
1.25078e-16
8.01624e-07
-1.68237e-16
7.62859e-07
-1.31065e-07
1.19169e-07
-3.41534e-08
7.62859e-07
-1.31065e-07
9.491e-08
-3.4672e-08
8.01624e-07
6.50298e-08
-3.41357e-08
8.22195e-07
3.28938e-08
-3.33743e-08
8.3316e-07
-1.39353e-16
-3.28938e-08
8.38071e-07
-3.28938e-08
-3.28938e-08
8.38071e-07
-6.50298e-08
-3.33743e-08
8.3316e-07
-9.491e-08
-3.41357e-08
8.22195e-07
-1.19169e-07
-3.4672e-08
8.01624e-07
-3.41534e-08
7.62859e-07
-1.31065e-07
1.19327e-07
-6.59087e-08
7.48174e-07
-1.30281e-07
9.56429e-08
-6.75344e-08
7.9108e-07
6.58239e-08
-6.70017e-08
8.14686e-07
3.33743e-08
-6.58239e-08
8.27445e-07
2.19562e-16
-6.50298e-08
8.3316e-07
-3.33743e-08
-6.50298e-08
8.3316e-07
-6.58239e-08
-6.58239e-08
8.27445e-07
-9.56429e-08
-6.70017e-08
8.14686e-07
-1.19327e-07
-6.75344e-08
7.9108e-07
-6.59087e-08
7.48174e-07
-1.30281e-07
1.18997e-07
-9.23501e-08
7.17377e-07
-1.28221e-07
9.65121e-08
-9.60068e-08
7.68227e-07
6.70017e-08
-9.65121e-08
7.98052e-07
3.41357e-08
-9.56429e-08
8.14686e-07
1.20942e-16
-9.491e-08
8.22195e-07
-3.41357e-08
-9.491e-08
8.22195e-07
-6.70017e-08
-9.56429e-08
8.14686e-07
-9.65121e-08
-9.65121e-08
7.98052e-07
-1.18997e-07
-9.60068e-08
7.68227e-07
-9.23501e-08
7.17377e-07
-1.28221e-07
1.16393e-07
-1.09723e-07
6.67812e-07
-1.23614e-07
9.60068e-08
-1.16393e-07
7.29204e-07
6.75344e-08
-1.18997e-07
7.68227e-07
3.4672e-08
-1.19327e-07
7.9108e-07
-2.83552e-17
-1.19169e-07
8.01624e-07
-3.4672e-08
-1.19169e-07
8.01624e-07
-6.75344e-08
-1.19327e-07
7.9108e-07
-9.60068e-08
-1.18997e-07
7.68227e-07
-1.16393e-07
-1.16393e-07
7.29204e-07
-1.09723e-07
6.67812e-07
-1.23614e-07
1.09723e-07
5.96971e-07
-1.14643e-07
-1.14643e-07
9.23501e-08
6.67812e-07
-1.23614e-07
6.59087e-08
7.17377e-07
-1.28221e-07
3.41534e-08
7.48174e-07
-1.30281e-07
1.62068e-16
7.62859e-07
-1.31065e-07
-3.41534e-08
7.62859e-07
-1.31065e-07
-6.59087e-08
7.48174e-07
-1.30281e-07
-9.23501e-08
7.17377e-07
-1.28221e-07
-1.09723e-07
6.67812e-07
-1.23614e-07
5.96971e-07
-1.14643e-07
-1.14643e-07
6.35447e-08
6.35447e-08
5.95635e-07
-6.28768e-08
-6.28768e-08
5.60356e-08
7.22265e-08
6.7512e-07
-7.20248e-08
4.12871e-08
7.74471e-08
7.32333e-07
-7.76538e-08
2.18232e-08
8.01409e-08
7.68545e-07
-8.10481e-08
3.57015e-16
8.12476e-08
7.85974e-07
-8.25399e-08
-2.18232e-08
8.12476e-08
7.85974e-07
-8.25399e-08
-4.12871e-08
8.01409e-08
7.68545e-07
-8.10481e-08
-5.60356e-08
7.74471e-08
7.32333e-07
-7.76538e-08
-6.35447e-08
7.22265e-08
6.7512e-07
-7.20248e-08
6.35447e-08
5.95635e-07
-6.28768e-08
-6.28768e-08
7.22265e-08
5.60356e-08
6.7512e-07
-7.20248e-08
6.25733e-08
6.25733e-08
7.4851e-07
4.55196e-08
6.62034e-08
7.96524e-07
2.38445e-08
6.78293e-08
8.25067e-07
5.05417e-16
6.84099e-08
8.38306e-07
-2.38445e-08
6.84099e-08
8.38306e-07
-4.55196e-08
6.78293e-08
8.25067e-07
-6.25733e-08
6.62034e-08
7.96524e-07
-7.22265e-08
6.25733e-08
7.4851e-07
5.60356e-08
6.7512e-07
-7.20248e-08
7.74471e-08
4.12871e-08
7.32333e-07
-7.76538e-08
6.62034e-08
4.55196e-08
7.96524e-07
4.76131e-08
4.76131e-08
8.35233e-07
2.47615e-08
4.84065e-08
8.56961e-07
3.45149e-16
4.86292e-08
8.66737e-07
-2.47615e-08
4.86292e-08
8.66737e-07
-4.76131e-08
4.84065e-08
8.56961e-07
-6.62034e-08
4.76131e-08
8.35233e-07
-7.74471e-08
4.55196e-08
7.96524e-07
4.12871e-08
7.32333e-07
-7.76538e-08
8.01409e-08
2.18232e-08
7.68545e-07
-8.10481e-08
6.78293e-08
2.38445e-08
8.25067e-07
4.84065e-08
2.47615e-08
8.56961e-07
2.50622e-08
2.50622e-08
8.74134e-07
2.77759e-16
2.51233e-08
8.81728e-07
-2.50622e-08
2.51233e-08
8.81728e-07
-4.84065e-08
2.50622e-08
8.74134e-07
-6.78293e-08
2.47615e-08
8.56961e-07
-8.01409e-08
2.38445e-08
8.25067e-07
2.18232e-08
7.68545e-07
-8.10481e-08
8.12476e-08
-3.2847e-16
7.85974e-07
-8.25399e-08
6.84099e-08
1.16016e-17
8.38306e-07
4.86292e-08
-2.4672e-16
8.66737e-07
2.51233e-08
-2.52209e-16
8.81728e-07
2.93485e-16
2.49501e-16
8.88318e-07
-2.51233e-08
1.09374e-16
8.88318e-07
-4.86292e-08
-6.52474e-16
8.81728e-07
-6.84099e-08
-4.39195e-16
8.66737e-07
-8.12476e-08
-2.54822e-16
8.38306e-07
-1.73032e-16
7.85974e-07
-8.25399e-08
8.12476e-08
-2.18232e-08
7.85974e-07
-8.25399e-08
6.84099e-08
-2.38445e-08
8.38306e-07
4.86292e-08
-2.47615e-08
8.66737e-07
2.51233e-08
-2.50622e-08
8.81728e-07
8.79484e-17
-2.51233e-08
8.88318e-07
-2.51233e-08
-2.51233e-08
8.88318e-07
-4.86292e-08
-2.50622e-08
8.81728e-07
-6.84099e-08
-2.47615e-08
8.66737e-07
-8.12476e-08
-2.38445e-08
8.38306e-07
-2.18233e-08
7.85974e-07
-8.25399e-08
8.01409e-08
-4.12871e-08
7.68545e-07
-8.10481e-08
6.78293e-08
-4.55196e-08
8.25067e-07
4.84065e-08
-4.76131e-08
8.56961e-07
2.50622e-08
-4.84065e-08
8.74134e-07
1.9665e-16
-4.86292e-08
8.81728e-07
-2.50622e-08
-4.86292e-08
8.81728e-07
-4.84065e-08
-4.84065e-08
8.74134e-07
-6.78293e-08
-4.76131e-08
8.56961e-07
-8.01409e-08
-4.55196e-08
8.25067e-07
-4.12871e-08
7.68545e-07
-8.10481e-08
7.74471e-08
-5.60356e-08
7.32333e-07
-7.76538e-08
6.62034e-08
-6.25733e-08
7.96524e-07
4.76131e-08
-6.62034e-08
8.35233e-07
2.47615e-08
-6.78293e-08
8.56961e-07
-1.19752e-16
-6.84099e-08
8.66737e-07
-2.47615e-08
-6.84099e-08
8.66737e-07
-4.76131e-08
-6.78293e-08
8.56961e-07
-6.62034e-08
-6.62034e-08
8.35233e-07
-7.74471e-08
-6.25733e-08
7.96524e-07
-5.60356e-08
7.32333e-07
-7.76538e-08
7.22265e-08
-6.35447e-08
6.7512e-07
-7.20248e-08
6.25733e-08
-7.22265e-08
7.4851e-07
4.55196e-08
-7.74471e-08
7.96524e-07
2.38445e-08
-8.01409e-08
8.25067e-07
-3.96141e-16
-8.12476e-08
8.38306e-07
-2.38445e-08
-8.12476e-08
8.38306e-07
-4.55196e-08
-8.01409e-08
8.25067e-07
-6.25733e-08
-7.74471e-08
7.96524e-07
-7.22265e-08
-7.22265e-08
7.4851e-07
-6.35447e-08
6.7512e-07
-7.20248e-08
6.35447e-08
5.95635e-07
-6.28768e-08
-6.28768e-08
5.60356e-08
6.7512e-07
-7.20248e-08
4.12871e-08
7.32333e-07
-7.76538e-08
2.18232e-08
7.68545e-07
-8.10481e-08
1.18646e-16
7.85974e-07
-8.25399e-08
-2.18233e-08
7.85974e-07
-8.25399e-08
-4.12871e-08
7.68545e-07
-8.10481e-08
-5.60356e-08
7.32333e-07
-7.76538e-08
-6.35447e-08
6.7512e-07
-7.20248e-08
5.95635e-07
-6.28768e-08
-6.28768e-08
3.74686e-08
3.74686e-08
5.92069e-07
-3.56855e-08
-3.56855e-08
3.3876e-08
4.38836e-08
6.76463e-07
-4.16341e-08
2.54627e-08
4.82968e-08
7.38353e-07
-4.59036e-08
1.36286e-08
5.09215e-08
7.78089e-07
-4.86314e-08
3.62639e-16
5.21047e-08
7.97376e-07
-4.98782e-08
-1.36286e-08
5.21047e-08
7.97376e-07
-4.98782e-08
-2.54627e-08
5.09215e-08
7.78089e-07
-4.86314e-08
-3.3876e-08
4.82968e-08
7.38353e-07
-4.59036e-08
-3.74686e-08
4.38836e-08
6.76463e-07
-4.16341e-08
3.74686e-08
5.92069e-07
-3.56855e-08
-3.56855e-08
4.38836e-08
3.3876e-08
6.76463e-07
-4.16341e-08
3.93596e-08
3.93596e-08
7.57559e-07
2.93387e-08
4.29556e-08
8.11886e-07
1.55997e-08
4.4967e-08
8.44761e-07
6.21172e-16
4.58421e-08
8.60168e-07
-1.55997e-08
4.58421e-08
8.60168e-07
-2.93387e-08
4.4967e-08
8.44761e-07
-3.93596e-08
4.29556e-08
8.11886e-07
-4.38836e-08
3.93596e-08
7.57559e-07
3.3876e-08
6.76463e-07
-4.16341e-08
4.82968e-08
2.54627e-08
7.38353e-07
-4.59036e-08
4.29556e-08
2.93387e-08
8.11886e-07
3.17658e-08
3.17658e-08
8.57613e-07
1.67981e-08
3.3061e-08
8.83834e-07
3.62987e-16
3.36038e-08
8.95773e-07
-1.67981e-08
3.36038e-08
8.95773e-07
-3.17658e-08
3.3061e-08
8.83834e-07
-4.29556e-08
3.17658e-08
8.57613e-07
-4.82968e-08
2.93387e-08
8.11886e-07
2.54627e-08
7.38353e-07
-4.59036e-08
5.09215e-08
1.36286e-08
7.78089e-07
-4.86314e-08
4.4967e-08
1.55997e-08
8.44761e-07
3.3061e-08
1.67981e-08
8.83834e-07
1.74224e-08
1.74224e-08
9.05411e-07
2.32455e-16
1.76781e-08
9.15076e-07
-1.74224e-08
1.76781e-08
9.15076e-07
-3.3061e-08
1.74224e-08
9.05411e-07
-4.4967e-08
1.67981e-08
8.83834e-07
-5.09215e-08
1.55997e-08
8.44761e-07
1.36286e-08
7.78089e-07
-4.86314e-08
5.21047e-08
1.82127e-16
7.97376e-07
-4.98782e-08
4.58421e-08
4.27093e-16
8.60168e-07
3.36038e-08
1.49411e-17
8.95773e-07
1.76781e-08
-1.2208e-16
9.15076e-07
3.60854e-16
3.10681e-16
9.23674e-07
-1.76781e-08
6.48979e-16
9.23674e-07
-3.36038e-08
1.62825e-16
9.15076e-07
-4.58421e-08
9.90267e-17
8.95773e-07
-5.21047e-08
-1.44611e-16
8.60168e-07
-2.25891e-16
7.97376e-07
-4.98782e-08
5.21047e-08
-1.36286e-08
7.97376e-07
-4.98782e-08
4.58421e-08
-1.55997e-08
8.60168e-07
3.36038e-08
-1.67981e-08
8.95773e-07
1.76781e-08
-1.74224e-08
9.15076e-07
6.11715e-16
-1.76781e-08
9.23674e-07
-1.76781e-08
-1.76781e-08
9.23674e-07
-3.36038e-08
-1.74224e-08
9.15076e-07
-4.58421e-08
-1.67981e-08
8.95773e-07
-5.21047e-08
-1.55997e-08
8.60168e-07
-1.36286e-08
7.97376e-07
-4.98782e-08
5.09215e-08
-2.54627e-08
7.78089e-07
-4.86314e-08
4.4967e-08
-2.93387e-08
8.44761e-07
3.3061e-08
-3.17658e-08
8.83834e-07
1.74224e-08
-3.3061e-08
9.05411e-07
1.0152e-15
-3.36038e-08
9.15076e-07
-1.74224e-08
-3.36038e-08
9.15076e-07
-3.3061e-08
-3.3061e-08
9.05411e-07
-4.4967e-08
-3.17658e-08
8.83834e-07
-5.09215e-08
-2.93387e-08
8.44761e-07
-2.54627e-08
7.78089e-07
-4.86314e-08
4.82968e-08
-3.3876e-08
7.38353e-07
-4.59036e-08
4.29556e-08
-3.93596e-08
8.11886e-07
3.17658e-08
-4.29556e-08
8.57613e-07
1.67981e-08
-4.4967e-08
8.83834e-07
6.19889e-16
-4.58421e-08
8.95773e-07
-1.67981e-08
-4.58421e-08
8.95773e-07
-3.17658e-08
-4.4967e-08
8.83834e-07
-4.29556e-08
-4.29556e-08
8.57613e-07
-4.82968e-08
-3.93596e-08
8.11886e-07
-3.3876e-08
7.38353e-07
-4.59036e-08
4.38836e-08
-3.74686e-08
6.76463e-07
-4.16341e-08
3.93596e-08
-4.38836e-08
7.57559e-07
2.93387e-08
-4.82968e-08
8.11886e-07
1.55997e-08
-5.09215e-08
8.44761e-07
-3.9285e-17
-5.21047e-08
8.60168e-07
-1.55997e-08
-5.21047e-08
8.60168e-07
-2.93387e-08
-5.09215e-08
8.44761e-07
-3.93596e-08
-4.82968e-08
8.11886e-07
-4.38836e-08
-4.38836e-08
7.57559e-07
-3.74686e-08
6.76463e-07
-4.16341e-08
3.74686e-08
5.92069e-07
-3.56855e-08
-3.56855e-08
3.3876e-08
6.76463e-07
-4.16341e-08
2.54627e-08
7.38353e-07
-4.59036e-08
1.36286e-08
7.78089e-07
-4.86314e-08
4.01123e-16
7.97376e-07
-4.98782e-08
-1.36286e-08
7.97376e-07
-4.98782e-08
-2.54627e-08
7.78089e-07
-4.86314e-08
-3.3876e-08
7.38353e-07
-4.59036e-08
-3.74686e-08
6.76463e-07
-4.16341e-08
5.92069e-07
-3.56855e-08
-3.56855e-08
1.84516e-08
1.84516e-08
5.88698e-07
-1.6766e-08
-1.6766e-08
1.73245e-08
2.27008e-08
6.75154e-07
-2.02647e-08
1.33948e-08
2.59594e-08
7.39357e-07
-2.30339e-08
7.29452e-09
2.80978e-08
7.81013e-07
-2.49218e-08
4.21842e-16
2.9127e-08
8.0137e-07
-2.58264e-08
-7.29452e-09
2.9127e-08
8.0137e-07
-2.58264e-08
-1.33948e-08
2.80978e-08
7.81013e-07
-2.49218e-08
-1.73245e-08
2.59594e-08
7.39357e-07
-2.30339e-08
-1.84516e-08
2.27008e-08
6.75154e-07
-2.02647e-08
1.84516e-08
5.88698e-07
-1.6766e-08
-1.6766e-08
2.27008e-08
1.73245e-08
6.75154e-07
-2.02647e-08
2.13366e-08
2.13366e-08
7.60287e-07
1.64434e-08
2.43319e-08
8.18407e-07
8.92091e-09
2.62339e-08
8.54147e-07
1.00333e-15
2.71387e-08
8.71077e-07
-8.92091e-09
2.71387e-08
8.71077e-07
-1.64434e-08
2.62339e-08
8.54147e-07
-2.13366e-08
2.43318e-08
8.18407e-07
-2.27008e-08
2.13366e-08
7.60287e-07
1.73245e-08
6.75154e-07
-2.02647e-08
2.59594e-08
1.33948e-08
7.39357e-07
-2.30339e-08
2.43319e-08
1.64434e-08
8.18407e-07
1.86682e-08
1.86682e-08
8.6894e-07
1.00903e-08
2.00492e-08
8.98597e-07
9.433e-16
2.06968e-08
9.12305e-07
-1.00903e-08
2.06968e-08
9.12305e-07
-1.86682e-08
2.00492e-08
8.98597e-07
-2.43318e-08
1.86682e-08
8.6894e-07
-2.59594e-08
1.64434e-08
8.18407e-07
1.33948e-08
7.39357e-07
-2.30339e-08
2.80978e-08
7.29452e-09
7.81013e-07
-2.49218e-08
2.62339e-08
8.92091e-09
8.54147e-07
2.00492e-08
1.00903e-08
8.98597e-07
1.08083e-08
1.08083e-08
9.23893e-07
7.66106e-16
1.11422e-08
9.35439e-07
-1.08083e-08
1.11422e-08
9.35439e-07
-2.00492e-08
1.08083e-08
9.23893e-07
-2.62339e-08
1.00903e-08
8.98597e-07
-2.80978e-08
8.92091e-09
8.54147e-07
7.29452e-09
7.81013e-07
-2.49218e-08
2.9127e-08
2.177e-16
8.0137e-07
-2.58264e-08
2.71387e-08
4.8762e-16
8.71077e-07
2.06968e-08
3.97736e-16
9.12305e-07
1.11422e-08
3.26773e-16
9.35439e-07
6.81227e-16
4.93505e-16
9.45959e-07
-1.11422e-08
6.53214e-16
9.45959e-07
-2.06968e-08
1.50076e-16
9.35439e-07
-2.71387e-08
-4.14432e-17
9.12305e-07
-2.9127e-08
-2.4237e-16
8.71077e-07
-1.79337e-16
8.0137e-07
-2.58264e-08
2.9127e-08
-7.29452e-09
8.0137e-07
-2.58264e-08
2.71387e-08
-8.92091e-09
8.71077e-07
2.06968e-08
-1.00903e-08
9.12305e-07
1.11422e-08
-1.08083e-08
9.35439e-07
7.594e-16
-1.11422e-08
9.45959e-07
-1.11422e-08
-1.11422e-08
9.45959e-07
-2.06968e-08
-1.08083e-08
9.35439e-07
-2.71387e-08
-1.00903e-08
9.12305e-07
-2.9127e-08
-8.92091e-09
8.71077e-07
-7.29452e-09
8.0137e-07
-2.58264e-08
2.80978e-08
-1.33948e-08
7.81013e-07
-2.49218e-08
2.62339e-08
-1.64434e-08
8.54147e-07
2.00492e-08
-1.86682e-08
8.98597e-07
1.08083e-08
-2.00492e-08
9.23893e-07
1.05254e-15
-2.06968e-08
9.35439e-07
-1.08083e-08
-2.06968e-08
9.35439e-07
-2.00492e-08
-2.00492e-08
9.23893e-07
-2.62339e-08
-1.86682e-08
8.98597e-07
-2.80978e-08
-1.64434e-08
8.54147e-07
-1.33948e-08
7.81013e-07
-2.49218e-08
2.59594e-08
-1.73245e-08
7.39357e-07
-2.30339e-08
2.43318e-08
-2.13366e-08
8.18407e-07
1.86682e-08
-2.43318e-08
8.6894e-07
1.00903e-08
-2.62339e-08
8.98597e-07
7.95925e-16
-2.71387e-08
9.12305e-07
-1.00903e-08
-2.71387e-08
9.12305e-07
-1.86682e-08
-2.62339e-08
8.98597e-07
-2.43318e-08
-2.43318e-08
8.6894e-07
-2.59594e-08
-2.13366e-08
8.18407e-07
-1.73245e-08
7.39357e-07
-2.30339e-08
2.27008e-08
-1.84516e-08
6.75154e-07
-2.02647e-08
2.13366e-08
-2.27008e-08
7.60287e-07
1.64434e-08
-2.59594e-08
8.18407e-07
8.92091e-09
-2.80978e-08
8.54147e-07
1.48872e-16
-2.9127e-08
8.71077e-07
-8.92091e-09
-2.9127e-08
8.71077e-07
-1.64434e-08
-2.80978e-08
8.54147e-07
-2.13366e-08
-2.59594e-08
8.18407e-07
-2.27008e-08
-2.27008e-08
7.60287e-07
-1.84516e-08
6.75154e-07
-2.02647e-08
1.84516e-08
5.88698e-07
-1.6766e-08
-1.6766e-08
1.73245e-08
6.75154e-07
-2.02647e-08
1.33948e-08
7.39357e-07
-2.30339e-08
7.29452e-09
7.81013e-07
-2.49218e-08
4.23346e-16
8.0137e-07
-2.58264e-08
-7.29452e-09
8.0137e-07
-2.58264e-08
-1.33948e-08
7.81013e-07
-2.49218e-08
-1.73245e-08
7.39357e-07
-2.30339e-08
-1.84516e-08
6.75154e-07
-2.02647e-08
5.88698e-07
-1.6766e-08
-1.6766e-08
7.93676e-09
7.93676e-09
5.8658e-07
-6.87809e-09
-6.87809e-09
7.73965e-09
1.02521e-08
6.73676e-07
-8.57763e-09
6.1576e-09
1.21993e-08
7.3879e-07
-1.00507e-08
3.41234e-09
1.35736e-08
7.81296e-07
-1.11111e-08
5.53692e-16
1.42659e-08
8.02156e-07
-1.1639e-08
-3.41234e-09
1.42659e-08
8.02156e-07
-1.1639e-08
-6.1576e-09
1.35736e-08
7.81296e-07
-1.11111e-08
-7.73964e-09
1.21993e-08
7.3879e-07
-1.00507e-08
-7.93676e-09
1.02521e-08
6.73676e-07
-8.57763e-09
7.93676e-09
5.8658e-07
-6.87809e-09
-6.87809e-09
1.02521e-08
7.73964e-09
6.73676e-07
-8.57763e-09
1.013e-08
1.013e-08
7.60531e-07
8.08953e-09
1.21023e-08
8.20545e-07
4.48291e-09
1.34628e-08
8.57864e-07
6.6314e-16
1.41438e-08
8.75682e-07
-4.48291e-09
1.41438e-08
8.75682e-07
-8.08952e-09
1.34628e-08
8.57864e-07
-1.013e-08
1.21023e-08
8.20545e-07
-1.02521e-08
1.013e-08
7.60531e-07
7.73964e-09
6.73676e-07
-8.57763e-09
1.21993e-08
6.1576e-09
7.3879e-07
-1.00507e-08
1.21023e-08
8.08952e-09
8.20545e-07
9.6582e-09
9.6582e-09
8.73829e-07
5.34189e-09
1.07213e-08
9.05655e-07
5.29489e-16
1.12479e-08
9.20543e-07
-5.34189e-09
1.12479e-08
9.20543e-07
-9.6582e-09
1.07213e-08
9.05655e-07
-1.21023e-08
9.6582e-09
8.73829e-07
-1.21993e-08
8.08953e-09
8.20545e-07
6.1576e-09
7.3879e-07
-1.00507e-08
1.35736e-08
3.41234e-09
7.81296e-07
-1.11111e-08
1.34628e-08
4.48291e-09
8.57864e-07
1.07213e-08
5.34189e-09
9.05655e-07
5.91837e-09
5.91837e-09
9.33499e-07
6.13715e-16
6.20178e-09
9.46403e-07
-5.91837e-09
6.20178e-09
9.46403e-07
-1.07213e-08
5.91837e-09
9.33499e-07
-1.34628e-08
5.34189e-09
9.05655e-07
-1.35736e-08
4.48291e-09
8.57864e-07
3.41234e-09
7.81296e-07
-1.11111e-08
1.42659e-08
2.3069e-16
8.02156e-07
-1.1639e-08
1.41438e-08
2.71935e-16
8.75682e-07
1.12479e-08
2.33668e-16
9.20543e-07
6.20178e-09
3.21003e-16
9.46403e-07
6.94246e-16
5.56347e-16
9.58362e-07
-6.20177e-09
8.44366e-16
9.58362e-07
-1.12479e-08
7.75419e-16
9.46403e-07
-1.41438e-08
4.33523e-16
9.20543e-07
-1.42659e-08
5.24761e-17
8.75682e-07
-8.61088e-17
8.02156e-07
-1.1639e-08
1.42659e-08
-3.41234e-09
8.02156e-07
-1.1639e-08
1.41438e-08
-4.48291e-09
8.75682e-07
1.12479e-08
-5.34189e-09
9.20543e-07
6.20178e-09
-5.91837e-09
9.46403e-07
9.44195e-16
-6.20177e-09
9.58362e-07
-6.20177e-09
-6.20177e-09
9.58362e-07
-1.12479e-08
-5.91837e-09
9.46403e-07
-1.41438e-08
-5.34189e-09
9.20543e-07
-1.42659e-08
-4.48291e-09
8.75682e-07
-3.41235e-09
8.02156e-07
-1.1639e-08
1.35736e-08
-6.1576e-09
7.81296e-07
-1.11111e-08
1.34628e-08
-8.08953e-09
8.57864e-07
1.07213e-08
-9.6582e-09
9.05655e-07
5.91837e-09
-1.07213e-08
9.33499e-07
1.17225e-15
-1.12479e-08
9.46403e-07
-5.91837e-09
-1.12479e-08
9.46403e-07
-1.07213e-08
-1.07213e-08
9.33499e-07
-1.34628e-08
-9.6582e-09
9.05655e-07
-1.35736e-08
-8.08952e-09
8.57864e-07
-6.1576e-09
7.81296e-07
-1.11111e-08
1.21993e-08
-7.73964e-09
7.3879e-07
-1.00507e-08
1.21023e-08
-1.013e-08
8.20545e-07
9.6582e-09
-1.21023e-08
8.73829e-07
5.34189e-09
-1.34628e-08
9.05655e-07
9.7604e-16
-1.41438e-08
9.20543e-07
-5.34189e-09
-1.41438e-08
9.20543e-07
-9.6582e-09
-1.34628e-08
9.05655e-07
-1.21023e-08
-1.21023e-08
8.73829e-07
-1.21993e-08
-1.013e-08
8.20545e-07
-7.73965e-09
7.3879e-07
-1.00507e-08
1.02521e-08
-7.93676e-09
6.73676e-07
-8.57763e-09
1.013e-08
-1.02521e-08
7.60531e-07
8.08952e-09
-1.21993e-08
8.20545e-07
4.48291e-09
-1.35736e-08
8.57864e-07
2.82031e-16
-1.42659e-08
8.75682e-07
-4.48291e-09
-1.42659e-08
8.75682e-07
-8.08953e-09
-1.35736e-08
8.57864e-07
-1.013e-08
-1.21993e-08
8.20545e-07
-1.02521e-08
-1.02521e-08
7.60531e-07
-7.93677e-09
6.73676e-07
-8.57763e-09
7.93677e-09
5.8658e-07
-6.87809e-09
-6.87809e-09
7.73965e-09
6.73676e-07
-8.57763e-09
6.1576e-09
7.3879e-07
-1.00507e-08
3.41234e-09
7.81296e-07
-1.11111e-08
2.04272e-16
8.02156e-07
-1.1639e-08
-3.41234e-09
8.02156e-07
-1.1639e-08
-6.1576e-09
7.81296e-07
-1.11111e-08
-7.73965e-09
7.3879e-07
-1.00507e-08
-7.93677e-09
6.73676e-07
-8.57763e-09
5.8658e-07
-6.87809e-09
-6.87809e-09
3.01494e-09
3.01494e-09
5.85453e-07
-2.45113e-09
-2.45113e-09
3.08357e-09
4.13105e-09
6.72665e-07
-3.18835e-09
2.53903e-09
5.14186e-09
7.38073e-07
-3.87997e-09
1.43588e-09
5.89477e-09
7.80904e-07
-4.39965e-09
4.0124e-16
6.28682e-09
8.01972e-07
-4.66688e-09
-1.43588e-09
6.28682e-09
8.01972e-07
-4.66688e-09
-2.53903e-09
5.89477e-09
7.80904e-07
-4.39965e-09
-3.08357e-09
5.14185e-09
7.38073e-07
-3.87997e-09
-3.01494e-09
4.13105e-09
6.72665e-07
-3.18835e-09
3.01494e-09
5.85453e-07
-2.45113e-09
-2.45113e-09
4.13105e-09
3.08357e-09
6.72665e-07
-3.18835e-09
4.32717e-09
4.32717e-09
7.60139e-07
3.59516e-09
5.43347e-09
8.20985e-07
2.0384e-09
6.24139e-09
8.59075e-07
6.01304e-16
6.6597e-09
8.77348e-07
-2.0384e-09
6.6597e-09
8.77348e-07
-3.59516e-09
6.24139e-09
8.59075e-07
-4.32717e-09
5.43347e-09
8.20985e-07
-4.13105e-09
4.32717e-09
7.60139e-07
3.08357e-09
6.72665e-07
-3.18835e-09
5.14186e-09
2.53903e-09
7.38073e-07
-3.87997e-09
5.43347e-09
3.59516e-09
8.20985e-07
4.52116e-09
4.52116e-09
8.75653e-07
2.56042e-09
5.18592e-09
9.08671e-07
5.64366e-16
5.52626e-09
9.24237e-07
-2.56042e-09
5.52626e-09
9.24237e-07
-4.52115e-09
5.18592e-09
9.08671e-07
-5.43347e-09
4.52116e-09
8.75653e-07
-5.14186e-09
3.59516e-09
8.20985e-07
2.53903e-09
7.38073e-07
-3.87997e-09
5.89477e-09
1.43588e-09
7.80904e-07
-4.39965e-09
6.24139e-09
2.0384e-09
8.59075e-07
5.18592e-09
2.56042e-09
9.08671e-07
2.93124e-09
2.93124e-09
9.38008e-07
5.73976e-16
3.11955e-09
9.51741e-07
-2.93124e-09
3.11955e-09
9.51741e-07
-5.18592e-09