/*--------------------------------*- C++ -*----------------------------------*\
| =========                 |                                                 |
| \\      /  F ield         | OpenFOAM: The Open Source CFD Toolbox           |
|  \\    /   O peration     | Version:  2412                                  |
|   \\  /    A nd           | Website:  www.openfoam.com                      |
|    \\/     M anipulation  |                                                 |
\*---------------------------------------------------------------------------*/
FoamFile
{
    version     2.0;
    format      ascii;
    arch        "LSB;label=32;scalar=64";
    class       surfaceScalarField;
    location    "2.7";
    object      phi;
}
// * * * * * * * * * * * * * * * * * * * * * * * * * * * * * * * * * * * * * //

dimensions      [0 3 -1 0 0 0 0];

oriented        oriented;

internalField   nonuniform List<scalar> 
43700
(
1.61328e-07
1.61328e-07
5.43415e-07
-1.98026e-07
-1.98026e-07
1.18321e-07
1.4174e-07
5.84558e-07
-1.73906e-07
7.81153e-08
1.30068e-07
6.14353e-07
-1.64785e-07
3.86991e-08
1.22383e-07
6.3383e-07
-1.57084e-07
-1.15774e-15
1.1875e-07
6.43512e-07
-1.53635e-07
-3.86991e-08
1.1875e-07
6.43512e-07
-1.53635e-07
-7.81153e-08
1.22383e-07
6.3383e-07
-1.57084e-07
-1.18321e-07
1.30068e-07
6.14353e-07
-1.64785e-07
-1.61328e-07
1.4174e-07
5.84558e-07
-1.73906e-07
1.61328e-07
5.43415e-07
-1.98026e-07
-1.98026e-07
1.4174e-07
1.18321e-07
5.84558e-07
-1.73906e-07
1.05163e-07
1.05163e-07
6.18997e-07
6.92842e-08
9.56501e-08
6.43987e-07
3.43161e-08
8.93671e-08
6.6048e-07
-1.54005e-15
8.63254e-08
6.68714e-07
-3.43161e-08
8.63254e-08
6.68714e-07
-6.92842e-08
8.93671e-08
6.6048e-07
-1.05163e-07
9.56501e-08
6.43987e-07
-1.4174e-07
1.05163e-07
6.18997e-07
1.18321e-07
5.84558e-07
-1.73906e-07
1.30068e-07
7.81153e-08
6.14353e-07
-1.64785e-07
9.56501e-08
6.92842e-08
6.43987e-07
6.2688e-08
6.2688e-08
6.65797e-07
3.09803e-08
5.83155e-08
6.80322e-07
3.62542e-17
5.6182e-08
6.87602e-07
-3.09803e-08
5.6182e-08
6.87602e-07
-6.2688e-08
5.83155e-08
6.80322e-07
-9.56501e-08
6.2688e-08
6.65797e-07
-1.30068e-07
6.92842e-08
6.43987e-07
7.81153e-08
6.14353e-07
-1.64785e-07
1.22383e-07
3.86991e-08
6.3383e-07
-1.57084e-07
8.93671e-08
3.43161e-08
6.6048e-07
5.83155e-08
3.09803e-08
6.80322e-07
2.8754e-08
2.8754e-08
6.93626e-07
6.13178e-16
2.76631e-08
7.00315e-07
-2.8754e-08
2.76631e-08
7.00315e-07
-5.83155e-08
2.8754e-08
6.93626e-07
-8.93671e-08
3.09803e-08
6.80322e-07
-1.22383e-07
3.43161e-08
6.6048e-07
3.86991e-08
6.3383e-07
-1.57084e-07
1.1875e-07
-2.70839e-15
6.43512e-07
-1.53635e-07
8.63254e-08
-1.35483e-15
6.68714e-07
5.6182e-08
6.74734e-16
6.87602e-07
2.76631e-08
1.19434e-15
7.00315e-07
8.96783e-16
1.29803e-15
7.06719e-07
-2.76631e-08
6.87118e-16
7.06719e-07
-5.6182e-08
9.1202e-16
7.00315e-07
-8.63254e-08
1.0987e-15
6.87602e-07
-1.1875e-07
3.11788e-15
6.68714e-07
3.59188e-15
6.43512e-07
-1.53635e-07
1.1875e-07
-3.86991e-08
6.43512e-07
-1.53635e-07
8.63254e-08
-3.43161e-08
6.68714e-07
5.6182e-08
-3.09803e-08
6.87602e-07
2.76631e-08
-2.8754e-08
7.00315e-07
4.83093e-16
-2.76631e-08
7.06719e-07
-2.76631e-08
-2.76631e-08
7.06719e-07
-5.6182e-08
-2.8754e-08
7.00315e-07
-8.63254e-08
-3.09803e-08
6.87602e-07
-1.1875e-07
-3.43161e-08
6.68714e-07
-3.86991e-08
6.43512e-07
-1.53635e-07
1.22383e-07
-7.81153e-08
6.3383e-07
-1.57084e-07
8.93671e-08
-6.92842e-08
6.6048e-07
5.83155e-08
-6.2688e-08
6.80322e-07
2.8754e-08
-5.83155e-08
6.93626e-07
4.95218e-17
-5.6182e-08
7.00315e-07
-2.8754e-08
-5.6182e-08
7.00315e-07
-5.83155e-08
-5.83155e-08
6.93626e-07
-8.93671e-08
-6.2688e-08
6.80322e-07
-1.22383e-07
-6.92842e-08
6.6048e-07
-7.81153e-08
6.3383e-07
-1.57084e-07
1.30068e-07
-1.18321e-07
6.14353e-07
-1.64785e-07
9.56501e-08
-1.05163e-07
6.43987e-07
6.2688e-08
-9.56501e-08
6.65797e-07
3.09803e-08
-8.93671e-08
6.80322e-07
4.41614e-16
-8.63254e-08
6.87602e-07
-3.09803e-08
-8.63254e-08
6.87602e-07
-6.2688e-08
-8.93671e-08
6.80322e-07
-9.56501e-08
-9.56501e-08
6.65797e-07
-1.30068e-07
-1.05163e-07
6.43987e-07
-1.18321e-07
6.14353e-07
-1.64785e-07
1.4174e-07
-1.61328e-07
5.84558e-07
-1.73906e-07
1.05163e-07
-1.4174e-07
6.18997e-07
6.92842e-08
-1.30068e-07
6.43987e-07
3.43161e-08
-1.22383e-07
6.6048e-07
2.76534e-15
-1.1875e-07
6.68714e-07
-3.43161e-08
-1.1875e-07
6.68714e-07
-6.92842e-08
-1.22383e-07
6.6048e-07
-1.05163e-07
-1.30068e-07
6.43987e-07
-1.4174e-07
-1.4174e-07
6.18997e-07
-1.61328e-07
5.84558e-07
-1.73906e-07
1.61328e-07
5.43415e-07
-1.98026e-07
-1.98026e-07
1.18321e-07
5.84558e-07
-1.73906e-07
7.81153e-08
6.14353e-07
-1.64785e-07
3.86991e-08
6.3383e-07
-1.57084e-07
2.81659e-15
6.43512e-07
-1.53635e-07
-3.86991e-08
6.43512e-07
-1.53635e-07
-7.81153e-08
6.3383e-07
-1.57084e-07
-1.18321e-07
6.14353e-07
-1.64785e-07
-1.61328e-07
5.84558e-07
-1.73906e-07
5.43415e-07
-1.98026e-07
-1.98026e-07
7.08925e-08
7.08925e-08
5.6479e-07
-8.15803e-08
-8.15803e-08
5.59913e-08
7.01176e-08
6.09751e-07
-8.04102e-08
3.87449e-08
6.98117e-08
6.4224e-07
-8.04527e-08
1.9752e-08
6.93406e-08
6.63485e-07
-8.00028e-08
1.33116e-15
6.9191e-08
6.74056e-07
-7.99829e-08
-1.9752e-08
6.9191e-08
6.74056e-07
-7.99829e-08
-3.87449e-08
6.93406e-08
6.63485e-07
-8.00028e-08
-5.59913e-08
6.98117e-08
6.4224e-07
-8.04527e-08
-7.08925e-08
7.01176e-08
6.09751e-07
-8.04102e-08
7.08925e-08
5.6479e-07
-8.15803e-08
-8.15803e-08
7.01176e-08
5.59913e-08
6.09751e-07
-8.04102e-08
5.57915e-08
5.57915e-08
6.47649e-07
3.87805e-08
5.55777e-08
6.75232e-07
1.98494e-08
5.52614e-08
6.93491e-07
-2.53194e-16
5.51253e-08
7.02629e-07
-1.98494e-08
5.51253e-08
7.02629e-07
-3.87805e-08
5.52614e-08
6.93491e-07
-5.57915e-08
5.55777e-08
6.75232e-07
-7.01176e-08
5.57915e-08
6.47649e-07
5.59913e-08
6.09751e-07
-8.04102e-08
6.98117e-08
3.87449e-08
6.4224e-07
-8.04527e-08
5.55777e-08
3.87805e-08
6.75232e-07
3.86631e-08
3.86631e-08
6.99627e-07
1.98199e-08
3.84775e-08
7.15949e-07
9.32465e-16
3.83858e-08
7.24161e-07
-1.98199e-08
3.83858e-08
7.24161e-07
-3.86631e-08
3.84775e-08
7.15949e-07
-5.55777e-08
3.86631e-08
6.99627e-07
-6.98117e-08
3.87805e-08
6.75232e-07
3.87449e-08
6.4224e-07
-8.04527e-08
6.93406e-08
1.9752e-08
6.63485e-07
-8.00028e-08
5.52614e-08
1.98494e-08
6.93491e-07
3.84775e-08
1.98199e-08
7.15949e-07
1.9744e-08
1.9744e-08
7.31093e-07
2.37882e-15
1.97024e-08
7.38742e-07
-1.97439e-08
1.97024e-08
7.38742e-07
-3.84775e-08
1.9744e-08
7.31093e-07
-5.52614e-08
1.98199e-08
7.15949e-07
-6.93406e-08
1.98494e-08
6.93491e-07
1.9752e-08
6.63485e-07
-8.00028e-08
6.9191e-08
-1.51744e-15
6.74056e-07
-7.99829e-08
5.51253e-08
-8.83844e-16
7.02629e-07
3.83858e-08
2.2046e-15
7.24161e-07
1.97024e-08
3.40977e-15
7.38742e-07
2.31755e-15
2.7193e-15
7.46123e-07
-1.97024e-08
1.92052e-15
7.46123e-07
-3.83858e-08
8.97193e-16
7.38742e-07
-5.51253e-08
1.25336e-15
7.24161e-07
-6.9191e-08
5.3264e-15
7.02629e-07
5.44055e-15
6.74056e-07
-7.99829e-08
6.9191e-08
-1.9752e-08
6.74056e-07
-7.99829e-08
5.51253e-08
-1.98494e-08
7.02629e-07
3.83858e-08
-1.98199e-08
7.24161e-07
1.97024e-08
-1.97439e-08
7.38742e-07
1.40362e-15
-1.97024e-08
7.46123e-07
-1.97024e-08
-1.97024e-08
7.46123e-07
-3.83858e-08
-1.9744e-08
7.38742e-07
-5.51253e-08
-1.98199e-08
7.24161e-07
-6.9191e-08
-1.98494e-08
7.02629e-07
-1.9752e-08
6.74056e-07
-7.99829e-08
6.93406e-08
-3.87449e-08
6.63485e-07
-8.00028e-08
5.52614e-08
-3.87805e-08
6.93491e-07
3.84775e-08
-3.86631e-08
7.15949e-07
1.9744e-08
-3.84775e-08
7.31093e-07
2.55888e-16
-3.83858e-08
7.38742e-07
-1.9744e-08
-3.83858e-08
7.38742e-07
-3.84775e-08
-3.84775e-08
7.31093e-07
-5.52614e-08
-3.86631e-08
7.15949e-07
-6.93406e-08
-3.87805e-08
6.93491e-07
-3.87449e-08
6.63485e-07
-8.00028e-08
6.98117e-08
-5.59913e-08
6.4224e-07
-8.04527e-08
5.55777e-08
-5.57915e-08
6.75232e-07
3.86631e-08
-5.55777e-08
6.99627e-07
1.98199e-08
-5.52614e-08
7.15949e-07
1.39792e-15
-5.51253e-08
7.24161e-07
-1.98199e-08
-5.51253e-08
7.24161e-07
-3.86631e-08
-5.52614e-08
7.15949e-07
-5.55777e-08
-5.55777e-08
6.99627e-07
-6.98117e-08
-5.57915e-08
6.75232e-07
-5.59913e-08
6.4224e-07
-8.04527e-08
7.01176e-08
-7.08925e-08
6.09751e-07
-8.04102e-08
5.57915e-08
-7.01176e-08
6.47649e-07
3.87805e-08
-6.98117e-08
6.75232e-07
1.98494e-08
-6.93406e-08
6.93491e-07
4.46951e-15
-6.9191e-08
7.02629e-07
-1.98494e-08
-6.9191e-08
7.02629e-07
-3.87805e-08
-6.93406e-08
6.93491e-07
-5.57915e-08
-6.98118e-08
6.75232e-07
-7.01176e-08
-7.01176e-08
6.47649e-07
-7.08925e-08
6.09751e-07
-8.04102e-08
7.08925e-08
5.6479e-07
-8.15803e-08
-8.15803e-08
5.59913e-08
6.09751e-07
-8.04102e-08
3.87449e-08
6.4224e-07
-8.04527e-08
1.9752e-08
6.63485e-07
-8.00028e-08
3.00517e-15
6.74056e-07
-7.99829e-08
-1.9752e-08
6.74056e-07
-7.99829e-08
-3.87449e-08
6.63485e-07
-8.00028e-08
-5.59913e-08
6.4224e-07
-8.04527e-08
-7.08925e-08
6.09751e-07
-8.04102e-08
5.6479e-07
-8.15803e-08
-8.15803e-08
3.90902e-08
3.90901e-08
5.6887e-07
-4.11301e-08
-4.11301e-08
3.27271e-08
4.09521e-08
6.18021e-07
-4.28587e-08
2.34404e-08
4.20929e-08
6.53671e-07
-4.42368e-08
1.21829e-08
4.25944e-08
6.77072e-07
-4.49243e-08
6.72535e-16
4.28336e-08
6.88725e-07
-4.53199e-08
-1.21829e-08
4.28336e-08
6.88725e-07
-4.53199e-08
-2.34404e-08
4.25944e-08
6.77072e-07
-4.49243e-08
-3.27271e-08
4.20929e-08
6.53671e-07
-4.42368e-08
-3.90901e-08
4.09521e-08
6.18021e-07
-4.28587e-08
3.90902e-08
5.6887e-07
-4.11301e-08
-4.11301e-08
4.09521e-08
3.27271e-08
6.18021e-07
-4.28587e-08
3.44859e-08
3.44859e-08
6.60581e-07
2.47724e-08
3.54003e-08
6.91639e-07
1.2904e-08
3.57513e-08
7.12202e-07
-1.69703e-15
3.58869e-08
7.22479e-07
-1.2904e-08
3.58869e-08
7.22479e-07
-2.47724e-08
3.57513e-08
7.12202e-07
-3.44859e-08
3.54002e-08
6.91639e-07
-4.09521e-08
3.44859e-08
6.60581e-07
3.27271e-08
6.18021e-07
-4.28587e-08
4.20929e-08
2.34404e-08
6.53671e-07
-4.42368e-08
3.54002e-08
2.47724e-08
6.91639e-07
2.54001e-08
2.54001e-08
7.19627e-07
1.32249e-08
2.56125e-08
7.38263e-07
4.47826e-16
2.56763e-08
7.47596e-07
-1.32249e-08
2.56763e-08
7.47596e-07
-2.54001e-08
2.56125e-08
7.38263e-07
-3.54003e-08
2.54001e-08
7.19627e-07
-4.20929e-08
2.47724e-08
6.91639e-07
2.34404e-08
6.53671e-07
-4.42368e-08
4.25944e-08
1.21829e-08
6.77072e-07
-4.49243e-08
3.57513e-08
1.2904e-08
7.12202e-07
2.56125e-08
1.32249e-08
7.38263e-07
1.3325e-08
1.3325e-08
7.55668e-07
2.20352e-15
1.33491e-08
7.64395e-07
-1.3325e-08
1.33491e-08
7.64395e-07
-2.56125e-08
1.3325e-08
7.55668e-07
-3.57513e-08
1.32249e-08
7.38263e-07
-4.25944e-08
1.2904e-08
7.12202e-07
1.21829e-08
6.77072e-07
-4.49243e-08
4.28336e-08
-1.86682e-15
6.88725e-07
-4.53199e-08
3.58869e-08
-6.31902e-17
7.22479e-07
2.56763e-08
2.90766e-15
7.47596e-07
1.33491e-08
3.75529e-15
7.64395e-07
2.05554e-15
3.01848e-15
7.72822e-07
-1.33491e-08
1.6241e-15
7.72822e-07
-2.56763e-08
5.522e-16
7.64395e-07
-3.58869e-08
1.09524e-15
7.47596e-07
-4.28336e-08
3.8949e-15
7.22479e-07
4.04559e-15
6.88725e-07
-4.53199e-08
4.28336e-08
-1.21829e-08
6.88725e-07
-4.53199e-08
3.58869e-08
-1.2904e-08
7.22479e-07
2.56763e-08
-1.32249e-08
7.47596e-07
1.33491e-08
-1.3325e-08
7.64395e-07
3.55879e-16
-1.33491e-08
7.72822e-07
-1.33491e-08
-1.33491e-08
7.72822e-07
-2.56763e-08
-1.3325e-08
7.64395e-07
-3.58869e-08
-1.32249e-08
7.47596e-07
-4.28336e-08
-1.2904e-08
7.22479e-07
-1.21828e-08
6.88725e-07
-4.53199e-08
4.25944e-08
-2.34404e-08
6.77072e-07
-4.49243e-08
3.57513e-08
-2.47724e-08
7.12202e-07
2.56125e-08
-2.54001e-08
7.38263e-07
1.3325e-08
-2.56125e-08
7.55668e-07
-8.50855e-16
-2.56763e-08
7.64395e-07
-1.3325e-08
-2.56763e-08
7.64395e-07
-2.56125e-08
-2.56125e-08
7.55668e-07
-3.57513e-08
-2.54001e-08
7.38263e-07
-4.25944e-08
-2.47724e-08
7.12202e-07
-2.34404e-08
6.77072e-07
-4.49243e-08
4.20929e-08
-3.27271e-08
6.53671e-07
-4.42368e-08
3.54002e-08
-3.44859e-08
6.91639e-07
2.54001e-08
-3.54002e-08
7.19627e-07
1.32249e-08
-3.57513e-08
7.38263e-07
3.20243e-16
-3.58869e-08
7.47596e-07
-1.32249e-08
-3.58869e-08
7.47596e-07
-2.54001e-08
-3.57513e-08
7.38263e-07
-3.54002e-08
-3.54002e-08
7.19627e-07
-4.20929e-08
-3.44859e-08
6.91639e-07
-3.27271e-08
6.53671e-07
-4.42368e-08
4.09521e-08
-3.90902e-08
6.18021e-07
-4.28587e-08
3.44859e-08
-4.09521e-08
6.60581e-07
2.47724e-08
-4.20929e-08
6.91639e-07
1.2904e-08
-4.25944e-08
7.12202e-07
3.60905e-15
-4.28336e-08
7.22479e-07
-1.2904e-08
-4.28336e-08
7.22479e-07
-2.47724e-08
-4.25944e-08
7.12202e-07
-3.44859e-08
-4.20929e-08
6.91639e-07
-4.09521e-08
-4.09521e-08
6.60581e-07
-3.90901e-08
6.18021e-07
-4.28587e-08
3.90902e-08
5.6887e-07
-4.11301e-08
-4.11301e-08
3.27271e-08
6.18021e-07
-4.28587e-08
2.34404e-08
6.53671e-07
-4.42368e-08
1.21829e-08
6.77072e-07
-4.49243e-08
2.683e-15
6.88725e-07
-4.53199e-08
-1.21828e-08
6.88725e-07
-4.53199e-08
-2.34404e-08
6.77072e-07
-4.49243e-08
-3.27271e-08
6.53671e-07
-4.42368e-08
-3.90902e-08
6.18021e-07
-4.28587e-08
5.6887e-07
-4.11301e-08
-4.11301e-08
1.33175e-08
1.33175e-08
5.68026e-07
-1.28954e-08
-1.28954e-08
1.19613e-08
1.54049e-08
6.18783e-07
-1.48109e-08
8.95111e-09
1.68345e-08
6.55949e-07
-1.61027e-08
4.77218e-09
1.76776e-08
6.80501e-07
-1.69275e-08
1.39445e-15
1.80935e-08
6.92762e-07
-1.73581e-08
-4.77217e-09
1.80935e-08
6.92762e-07
-1.7358e-08
-8.9511e-09
1.76776e-08
6.80501e-07
-1.69275e-08
-1.19613e-08
1.68345e-08
6.55949e-07
-1.61027e-08
-1.33175e-08
1.54049e-08
6.18783e-07
-1.4811e-08
1.33175e-08
5.68026e-07
-1.28954e-08
-1.28954e-08
1.54049e-08
1.19613e-08
6.18783e-07
-1.48109e-08
1.38382e-08
1.38382e-08
6.63715e-07
1.03757e-08
1.51041e-08
6.96831e-07
5.5389e-09
1.58375e-08
7.18879e-07
5.99128e-16
1.61863e-08
7.29925e-07
-5.5389e-09
1.61863e-08
7.29925e-07
-1.03757e-08
1.58375e-08
7.18879e-07
-1.38382e-08
1.51041e-08
6.96831e-07
-1.54049e-08
1.38382e-08
6.63715e-07
1.19613e-08
6.18783e-07
-1.48109e-08
1.68345e-08
8.9511e-09
6.55949e-07
-1.61027e-08
1.51041e-08
1.03757e-08
6.96831e-07
1.13068e-08
1.13068e-08
7.27222e-07
6.03149e-09
1.18386e-08
7.47537e-07
2.00074e-15
1.20854e-08
7.57729e-07
-6.03149e-09
1.20854e-08
7.57729e-07
-1.13068e-08
1.18386e-08
7.47537e-07
-1.51041e-08
1.13068e-08
7.27222e-07
-1.68345e-08
1.03757e-08
6.96831e-07
8.9511e-09
6.55949e-07
-1.61027e-08
1.76776e-08
4.77217e-09
6.80501e-07
-1.69275e-08
1.58375e-08
5.5389e-09
7.18879e-07
1.18386e-08
6.03149e-09
7.47537e-07
6.31039e-09
6.31038e-09
7.66724e-07
2.57536e-15
6.43802e-09
7.76352e-07
-6.31038e-09
6.43802e-09
7.76352e-07
-1.18386e-08
6.31038e-09
7.66724e-07
-1.58375e-08
6.03149e-09
7.47537e-07
-1.76776e-08
5.5389e-09
7.18879e-07
4.77217e-09
6.80501e-07
-1.69275e-08
1.80935e-08
-3.78853e-16
6.92762e-07
-1.73581e-08
1.61863e-08
-3.30308e-16
7.29925e-07
1.20854e-08
1.79106e-15
7.57729e-07
6.43802e-09
2.46414e-15
7.76352e-07
2.1427e-15
2.31781e-15
7.85698e-07
-6.43801e-09
1.47936e-15
7.85698e-07
-1.20854e-08
8.61256e-16
7.76352e-07
-1.61863e-08
1.37858e-15
7.57729e-07
-1.80935e-08
3.71517e-15
7.29925e-07
3.80812e-15
6.92762e-07
-1.73581e-08
1.80935e-08
-4.77217e-09
6.92762e-07
-1.7358e-08
1.61863e-08
-5.5389e-09
7.29925e-07
1.20854e-08
-6.03149e-09
7.57729e-07
6.43802e-09
-6.31038e-09
7.76352e-07
1.21511e-15
-6.43801e-09
7.85698e-07
-6.43801e-09
-6.43801e-09
7.85698e-07
-1.20854e-08
-6.31038e-09
7.76352e-07
-1.61863e-08
-6.03149e-09
7.57729e-07
-1.80935e-08
-5.53889e-09
7.29925e-07
-4.77216e-09
6.92762e-07
-1.73581e-08
1.76776e-08
-8.9511e-09
6.80501e-07
-1.69275e-08
1.58375e-08
-1.03757e-08
7.18879e-07
1.18386e-08
-1.13068e-08
7.47537e-07
6.31038e-09
-1.18386e-08
7.66724e-07
9.68816e-16
-1.20854e-08
7.76352e-07
-6.31038e-09
-1.20854e-08
7.76352e-07
-1.18386e-08
-1.18386e-08
7.66724e-07
-1.58375e-08
-1.13068e-08
7.47537e-07
-1.76776e-08
-1.03757e-08
7.18879e-07
-8.95109e-09
6.80501e-07
-1.69275e-08
1.68345e-08
-1.19613e-08
6.55949e-07
-1.61027e-08
1.51041e-08
-1.38382e-08
6.96831e-07
1.13068e-08
-1.51041e-08
7.27222e-07
6.03149e-09
-1.58375e-08
7.47537e-07
1.63855e-15
-1.61863e-08
7.57729e-07
-6.03149e-09
-1.61863e-08
7.57729e-07
-1.13068e-08
-1.58375e-08
7.47537e-07
-1.51041e-08
-1.51041e-08
7.27222e-07
-1.68345e-08
-1.38382e-08
6.96831e-07
-1.19613e-08
6.55949e-07
-1.61027e-08
1.54049e-08
-1.33175e-08
6.18783e-07
-1.48109e-08
1.38382e-08
-1.54049e-08
6.63715e-07
1.03757e-08
-1.68345e-08
6.96831e-07
5.5389e-09
-1.76776e-08
7.18879e-07
2.72692e-15
-1.80935e-08
7.29925e-07
-5.53889e-09
-1.80935e-08
7.29925e-07
-1.03757e-08
-1.76776e-08
7.18879e-07
-1.38382e-08
-1.68345e-08
6.96831e-07
-1.54049e-08
-1.54049e-08
6.63715e-07
-1.33175e-08
6.18783e-07
-1.48109e-08
1.33175e-08
5.68026e-07
-1.28954e-08
-1.28954e-08
1.19613e-08
6.18783e-07
-1.48109e-08
8.9511e-09
6.55949e-07
-1.61027e-08
4.77217e-09
6.80501e-07
-1.69275e-08
1.443e-15
6.92762e-07
-1.73581e-08
-4.77216e-09
6.92762e-07
-1.73581e-08
-8.95109e-09
6.80501e-07
-1.69275e-08
-1.19613e-08
6.55949e-07
-1.61027e-08
-1.33175e-08
6.18783e-07
-1.48109e-08
5.68026e-07
-1.28954e-08
-1.28954e-08
4.42284e-09
4.42284e-09
5.67374e-07
-4.09663e-09
-4.09663e-09
4.09183e-09
5.3215e-09
6.18652e-07
-4.85958e-09
3.11871e-09
5.97287e-09
6.5634e-07
-5.39062e-09
1.68069e-09
6.38893e-09
6.81302e-07
-5.75242e-09
-6.22199e-16
6.59995e-09
6.93784e-07
-5.94154e-09
-1.68069e-09
6.59995e-09
6.93784e-07
-5.94154e-09
-3.11872e-09
6.38893e-09
6.81302e-07
-5.75241e-09
-4.09184e-09
5.97287e-09
6.5634e-07
-5.39062e-09
-4.42284e-09
5.32149e-09
6.18652e-07
-4.85957e-09
4.42283e-09
5.67374e-07
-4.09663e-09
-4.09664e-09
5.3215e-09
4.09183e-09
6.18652e-07
-4.85957e-09
4.95023e-09
4.95023e-09
6.64457e-07
3.79726e-09
5.5772e-09
6.9838e-07
2.05418e-09
5.97379e-09
7.21037e-07
-3.02282e-17
6.17112e-09
7.32408e-07
-2.05418e-09
6.17112e-09
7.32408e-07
-3.79726e-09
5.97379e-09
7.21037e-07
-4.95023e-09
5.5772e-09
6.9838e-07
-5.3215e-09
4.95023e-09
6.64457e-07
4.09183e-09
6.18652e-07
-4.85958e-09
5.97287e-09
3.11871e-09
6.5634e-07
-5.39062e-09
5.57721e-09
3.79726e-09
6.9838e-07
4.28675e-09
4.28675e-09
7.29803e-07
2.32189e-09
4.59479e-09
7.50881e-07
1.12597e-15
4.74613e-09
7.61476e-07
-2.32189e-09
4.74613e-09
7.61476e-07
-4.28674e-09
4.59479e-09
7.50881e-07
-5.5772e-09
4.28675e-09
7.29803e-07
-5.97287e-09
3.79726e-09
6.9838e-07
3.11871e-09
6.5634e-07
-5.39062e-09
6.38893e-09
1.68069e-09
6.81302e-07
-5.75242e-09
5.97379e-09
2.05418e-09
7.21037e-07
4.59479e-09
2.32189e-09
7.50881e-07
2.4901e-09
2.49011e-09
7.70934e-07
1.78365e-15
2.5722e-09
7.81016e-07
-2.4901e-09
2.5722e-09
7.81016e-07
-4.59479e-09
2.4901e-09
7.70934e-07
-5.97378e-09
2.32189e-09
7.50881e-07
-6.38892e-09
2.05418e-09
7.21037e-07
1.68069e-09
6.81302e-07
-5.75242e-09
6.59995e-09
-7.16275e-16
6.93784e-07
-5.94154e-09
6.17112e-09
2.03473e-15
7.32408e-07
4.74613e-09
2.83173e-15
7.61476e-07
2.5722e-09
2.93872e-15
7.81016e-07
1.55313e-15
2.49695e-15
7.90842e-07
-2.57219e-09
1.74844e-15
7.90842e-07
-4.74613e-09
1.07254e-15
7.81016e-07
-6.17112e-09
3.21685e-16
7.61476e-07
-6.59995e-09
2.43594e-16
7.32408e-07
1.0957e-15
6.93784e-07
-5.94154e-09
6.59995e-09
-1.68069e-09
6.93784e-07
-5.94154e-09
6.17112e-09
-2.05418e-09
7.32408e-07
4.74613e-09
-2.32189e-09
7.61476e-07
2.5722e-09
-2.4901e-09
7.81016e-07
8.22203e-16
-2.57219e-09
7.90842e-07
-2.57219e-09
-2.57219e-09
7.90842e-07
-4.74613e-09
-2.4901e-09
7.81016e-07
-6.17112e-09
-2.32189e-09
7.61476e-07
-6.59995e-09
-2.05418e-09
7.32408e-07
-1.68069e-09
6.93784e-07
-5.94154e-09
6.38892e-09
-3.11871e-09
6.81302e-07
-5.75241e-09
5.97379e-09
-3.79725e-09
7.21037e-07
4.59479e-09
-4.28674e-09
7.50881e-07
2.4901e-09
-4.59479e-09
7.70934e-07
-1.38928e-16
-4.74613e-09
7.81016e-07
-2.4901e-09
-4.74613e-09
7.81016e-07
-4.59479e-09
-4.59479e-09
7.70934e-07
-5.97379e-09
-4.28674e-09
7.50881e-07
-6.38893e-09
-3.79726e-09
7.21037e-07
-3.11871e-09
6.81302e-07
-5.75242e-09
5.97286e-09
-4.09183e-09
6.5634e-07
-5.39062e-09
5.5772e-09
-4.95023e-09
6.9838e-07
4.28674e-09
-5.5772e-09
7.29803e-07
2.32189e-09
-5.97379e-09
7.50881e-07
-7.69206e-16
-6.17112e-09
7.61476e-07
-2.32189e-09
-6.17112e-09
7.61476e-07
-4.28675e-09
-5.97378e-09
7.50881e-07
-5.57721e-09
-5.5772e-09
7.29803e-07
-5.97287e-09
-4.95023e-09
6.9838e-07
-4.09183e-09
6.5634e-07
-5.39062e-09
5.3215e-09
-4.42284e-09
6.18652e-07
-4.85958e-09
4.95023e-09
-5.32149e-09
6.64457e-07
3.79726e-09
-5.97286e-09
6.9838e-07
2.05418e-09
-6.38892e-09
7.21037e-07
-7.09885e-17
-6.59995e-09
7.32408e-07
-2.05418e-09
-6.59995e-09
7.32408e-07
-3.79726e-09
-6.38892e-09
7.21037e-07
-4.95023e-09
-5.97287e-09
6.9838e-07
-5.3215e-09
-5.32149e-09
6.64457e-07
-4.42284e-09
6.18652e-07
-4.85957e-09
4.42284e-09
5.67374e-07
-4.09663e-09
-4.09663e-09
4.09183e-09
6.18652e-07
-4.85957e-09
3.11871e-09
6.5634e-07
-5.39062e-09
1.68069e-09
6.81302e-07
-5.75241e-09
2.07233e-15
6.93784e-07
-5.94154e-09
-1.68069e-09
6.93784e-07
-5.94154e-09
-3.1187e-09
6.81302e-07
-5.75242e-09
-4.09182e-09
6.5634e-07
-5.39062e-09
-4.42283e-09
6.18652e-07
-4.85957e-09
5.67374e-07
-4.09663e-09
-4.09663e-09
1.50936e-09
1.50937e-09
5.67031e-07
-1.33803e-09
-1.33803e-09
1.43459e-09
1.87169e-09
6.1849e-07
-1.63488e-09
1.11189e-09
2.13803e-09
6.5637e-07
-1.84541e-09
6.04961e-10
2.3125e-09
6.81488e-07
-1.99165e-09
-2.88692e-16
2.40123e-09
6.94055e-07
-2.0673e-09
-6.0496e-10
2.40123e-09
6.94055e-07
-2.0673e-09
-1.11188e-09
2.31249e-09
6.81488e-07
-1.99165e-09
-1.43459e-09
2.13803e-09
6.5637e-07
-1.84541e-09
-1.50936e-09
1.87169e-09
6.1849e-07
-1.63488e-09
1.50937e-09
5.67031e-07
-1.33803e-09
-1.33803e-09
1.87168e-09
1.4346e-09
6.1849e-07
-1.63488e-09
1.78855e-09
1.78856e-09
6.64624e-07
1.39472e-09
2.05224e-09
6.9886e-07
7.61472e-10
2.22353e-09
7.21759e-07
-3.39159e-16
2.30968e-09
7.33261e-07
-7.61474e-10
2.30968e-09
7.33261e-07
-1.39472e-09
2.22352e-09
7.21759e-07
-1.78856e-09
2.05224e-09
6.9886e-07
-1.87169e-09
1.78856e-09
6.64624e-07
1.4346e-09
6.1849e-07
-1.63488e-09
2.13803e-09
1.11189e-09
6.5637e-07
-1.84541e-09
2.05224e-09
1.39472e-09
6.9886e-07
1.60491e-09
1.60491e-09
7.30697e-07
8.77761e-10
1.74116e-09
7.52091e-07
1.38423e-15
1.80915e-09
7.62854e-07
-8.77758e-10
1.80915e-09
7.62854e-07
-1.60491e-09
1.74116e-09
7.52091e-07
-2.05224e-09
1.60491e-09
7.30697e-07
-2.13804e-09
1.39472e-09
6.9886e-07
1.11189e-09
6.5637e-07
-1.84541e-09
2.3125e-09
6.0496e-10
6.81488e-07
-1.99165e-09
2.22353e-09
7.61474e-10
7.21759e-07
1.74116e-09
8.77761e-10
7.52091e-07
9.53234e-10
9.53233e-10
7.72509e-07
2.16743e-15
9.9076e-10
7.82788e-07
-9.5323e-10
9.9076e-10
7.82788e-07
-1.74116e-09
9.53232e-10
7.72509e-07
-2.22353e-09
8.7776e-10
7.52091e-07
-2.3125e-09
7.61476e-10
7.21759e-07
6.0496e-10
6.81488e-07
-1.99165e-09
2.40123e-09
-1.0702e-15
6.94055e-07
-2.0673e-09
2.30968e-09
-2.80823e-16
7.33261e-07
1.80915e-09
5.45107e-16
7.62854e-07
9.90761e-10
1.74353e-15
7.82788e-07
2.31727e-15
2.13801e-15
7.92824e-07
-9.90757e-10
2.09134e-15
7.92824e-07
-1.80915e-09
1.79894e-15
7.82788e-07
-2.30968e-09
2.13135e-15
7.62854e-07
-2.40123e-09
2.02537e-15
7.33261e-07
-5.19928e-16
6.94055e-07
-2.0673e-09
2.40123e-09
-6.04963e-10
6.94055e-07
-2.0673e-09
2.30968e-09
-7.61475e-10
7.33261e-07
1.80915e-09
-8.77761e-10
7.62854e-07
9.90761e-10
-9.5323e-10
7.82788e-07
2.38768e-15
-9.90757e-10
7.92824e-07
-9.90756e-10
-9.90756e-10
7.92824e-07
-1.80915e-09
-9.53228e-10
7.82788e-07
-2.30967e-09
-8.77757e-10
7.62854e-07
-2.40123e-09
-7.61471e-10
7.33261e-07
-6.0496e-10
6.94055e-07
-2.0673e-09
2.31249e-09
-1.11189e-09
6.81488e-07
-1.99165e-09
2.22353e-09
-1.39472e-09
7.21759e-07
1.74116e-09
-1.60491e-09
7.52091e-07
9.53233e-10
-1.74116e-09
7.72509e-07
2.03407e-15
-1.80915e-09
7.82788e-07
-9.53229e-10
-1.80915e-09
7.82788e-07
-1.74116e-09
-1.74115e-09
7.72509e-07
-2.22352e-09
-1.6049e-09
7.52091e-07
-2.31249e-09
-1.39472e-09
7.21759e-07
-1.11189e-09
6.81488e-07
-1.99165e-09
2.13804e-09
-1.4346e-09
6.5637e-07
-1.84541e-09
2.05224e-09
-1.78856e-09
6.9886e-07
1.60491e-09
-2.05224e-09
7.30697e-07
8.77762e-10
-2.22352e-09
7.52091e-07
2.6463e-15
-2.30967e-09
7.62854e-07
-8.77758e-10
-2.30967e-09
7.62854e-07
-1.60491e-09
-2.22352e-09
7.52091e-07
-2.05224e-09
-2.05224e-09
7.30697e-07
-2.13803e-09
-1.78856e-09
6.9886e-07
-1.4346e-09
6.5637e-07
-1.8454e-09
1.87169e-09
-1.50937e-09
6.1849e-07
-1.63488e-09
1.78856e-09
-1.87169e-09
6.64624e-07
1.39472e-09
-2.13804e-09
6.9886e-07
7.61477e-10
-2.31249e-09
7.21759e-07
3.32978e-15
-2.40123e-09
7.33261e-07
-7.61468e-10
-2.40123e-09
7.33261e-07
-1.39472e-09
-2.31249e-09
7.21759e-07
-1.78855e-09
-2.13803e-09
6.9886e-07
-1.87168e-09
-1.87169e-09
6.64624e-07
-1.50937e-09
6.1849e-07
-1.63487e-09
1.50936e-09
5.67031e-07
-1.33803e-09
-1.33803e-09
1.43459e-09
6.1849e-07
-1.63488e-09
1.11188e-09
6.5637e-07
-1.84541e-09
6.04959e-10
6.81488e-07
-1.99165e-09
-1.53402e-16
6.94055e-07
-2.0673e-09
-6.04957e-10
6.94055e-07
-2.0673e-09
-1.11188e-09
6.81488e-07
-1.99165e-09
-1.43458e-09
6.5637e-07
-1.84541e-09
-1.50936e-09
6.1849e-07
-1.63488e-09
5.67031e-07
-1.33803e-09
-1.33803e-09
4.89529e-10
4.89531e-10
5.66891e-07
-4.1982e-10
-4.1982e-10
4.78721e-10
6.31826e-10
6.18402e-07
-5.33093e-10
3.77567e-10
7.39029e-10
6.56345e-07
-6.13064e-10
2.07637e-10
8.11361e-10
6.81518e-07
-6.70894e-10
-1.46856e-16
8.48458e-10
6.94115e-07
-7.00666e-10
-2.07638e-10
8.48459e-10
6.94115e-07
-7.00666e-10
-3.77569e-10
8.11361e-10
6.81518e-07
-6.70892e-10
-4.78721e-10
7.39022e-10
6.56345e-07
-6.13061e-10
-4.89525e-10
6.31819e-10
6.18402e-07
-5.33091e-10
4.89525e-10
5.66891e-07
-4.19815e-10
-4.19816e-10
6.31828e-10
4.78723e-10
6.18402e-07
-5.33094e-10
6.20169e-10
6.20165e-10
6.64647e-07
4.92253e-10
7.2928e-10
6.98997e-07
2.71531e-10
8.02338e-10
7.21989e-07
1.98443e-15
8.39539e-10
7.33542e-07
-2.71526e-10
8.3954e-10
7.33542e-07
-4.92247e-10
8.02337e-10
7.21989e-07
-6.20164e-10
7.29276e-10
6.98997e-07
-6.31823e-10
6.2016e-10
6.64647e-07
4.78716e-10
6.18402e-07
-5.33091e-10
7.39035e-10
3.77565e-10
6.56345e-07
-6.13066e-10
7.29285e-10
4.9225e-10
6.98997e-07
5.80766e-10
5.80764e-10
7.30994e-07
3.2095e-10
6.39919e-10
7.52513e-07
2.33574e-15
6.69865e-10
7.63345e-07
-3.20945e-10
6.69865e-10
7.63345e-07
-5.80761e-10
6.39917e-10
7.52513e-07
-7.2928e-10
5.80762e-10
7.30994e-07
-7.39028e-10
4.92247e-10
6.98997e-07
3.7756e-10
6.56345e-07
-6.13063e-10
8.11365e-10
2.07634e-10
6.81518e-07
-6.70895e-10
8.0234e-10
2.7153e-10
7.21989e-07
6.39919e-10
3.2095e-10
7.52513e-07
3.54019e-10
3.54019e-10
7.73081e-07
1.95153e-15
3.70717e-10
7.83441e-07
-3.54015e-10
3.70716e-10
7.83441e-07
-6.39916e-10
3.54018e-10
7.73081e-07
-8.02337e-10
3.20948e-10
7.52513e-07
-8.11361e-10
2.71528e-10
7.21989e-07
2.07631e-10
6.81518e-07
-6.70894e-10
8.48458e-10
-1.24456e-15
6.94115e-07
-7.00667e-10
8.39539e-10
2.4547e-15
7.33542e-07
6.69864e-10
3.02415e-15
7.63345e-07
3.70716e-10
2.87615e-15
7.83441e-07
1.74347e-15
2.61318e-15
7.93565e-07
-3.70712e-10
1.99723e-15
7.93565e-07
-6.6986e-10
1.07883e-15
7.83441e-07
-8.39534e-10
7.17295e-16
7.63345e-07
-8.48455e-10
3.05458e-16
7.33542e-07
8.27552e-16
6.94115e-07
-7.00669e-10
8.48458e-10
-2.07638e-10
6.94115e-07
-7.00667e-10
8.39539e-10
-2.71526e-10
7.33542e-07
6.69863e-10
-3.20943e-10
7.63345e-07
3.70715e-10
-3.54014e-10
7.83441e-07
9.82949e-16
-3.70712e-10
7.93565e-07
-3.70713e-10
-3.70712e-10
7.93565e-07
-6.69861e-10
-3.54016e-10
7.83441e-07
-8.39535e-10
-3.20947e-10
7.63345e-07
-8.48456e-10
-2.71527e-10
7.33542e-07
-2.07629e-10
6.94115e-07
-7.0067e-10
8.1136e-10
-3.77569e-10
6.81518e-07
-6.70892e-10
8.02337e-10
-4.92246e-10
7.21989e-07
6.39918e-10
-5.80757e-10
7.52513e-07
3.54018e-10
-6.39914e-10
7.73081e-07
4.80959e-16
-6.69859e-10
7.83441e-07
-3.54017e-10
-6.6986e-10
7.83441e-07
-6.39916e-10
-6.39918e-10
7.73081e-07
-8.02335e-10
-5.80763e-10
7.52513e-07
-8.1136e-10
-4.92246e-10
7.21989e-07
-3.77556e-10
6.81518e-07
-6.70894e-10
7.39023e-10
-4.78722e-10
6.56345e-07
-6.13061e-10
7.29278e-10
-6.20162e-10
6.98997e-07
5.80763e-10
-7.29274e-10
7.30994e-07
3.20948e-10
-8.02334e-10
7.52513e-07
4.4735e-16
-8.39534e-10
7.63345e-07
-3.20946e-10
-8.39536e-10
7.63345e-07
-5.8076e-10
-8.02339e-10
7.52513e-07
-7.29276e-10
-7.2928e-10
7.30994e-07
-7.39027e-10
-6.20158e-10
6.98997e-07
-4.78712e-10
6.56345e-07
-6.13061e-10
6.3182e-10
-4.89527e-10
6.18402e-07
-5.33091e-10
6.20159e-10
-6.31819e-10
6.64647e-07
4.92243e-10
-7.39023e-10
6.98997e-07
2.71524e-10
-8.1136e-10
7.21989e-07
-1.25381e-15
-8.48456e-10
7.33542e-07
-2.71528e-10
-8.48458e-10
7.33542e-07
-4.92248e-10
-8.11365e-10
7.21989e-07
-6.20164e-10
-7.39029e-10
6.98997e-07
-6.31824e-10
-6.31817e-10
6.64647e-07
-4.89521e-10
6.18402e-07
-5.3309e-10
4.89524e-10
5.66891e-07
-4.19816e-10
-4.19816e-10
4.78715e-10
6.18402e-07
-5.33088e-10
3.77558e-10
6.56345e-07
-6.1306e-10
2.07631e-10
6.81518e-07
-6.70895e-10
9.72333e-17
6.94115e-07
-7.00669e-10
-2.07634e-10
6.94115e-07
-7.00669e-10
-3.77566e-10
6.81518e-07
-6.70895e-10
-4.78723e-10
6.56345e-07
-6.13063e-10
-4.89528e-10
6.18402e-07
-5.33088e-10
5.66891e-07
-4.19816e-10
-4.19814e-10
1.59066e-10
1.59059e-10
5.66842e-07
-1.3411e-10
-1.3411e-10
1.58098e-10
2.10332e-10
6.18367e-07
-1.74067e-10
1.25813e-10
2.49736e-10
6.5633e-07
-2.01945e-10
6.96052e-11
2.77084e-10
6.8152e-07
-2.22986e-10
-6.18257e-16
2.91244e-10
6.94127e-07
-2.33779e-10
-6.96063e-11
2.91242e-10
6.94127e-07
-2.33777e-10
-1.25812e-10
2.77081e-10
6.8152e-07
-2.22983e-10
-1.58097e-10
2.49739e-10
6.5633e-07
-2.01946e-10
-1.59069e-10
2.1034e-10
6.18367e-07
-1.7407e-10
1.59065e-10
5.66842e-07
-1.34113e-10
-1.34113e-10
2.10334e-10
1.58089e-10
6.18367e-07
-1.74067e-10
2.09963e-10
2.0996e-10
6.64648e-07
1.68591e-10
2.51289e-10
6.99037e-07
9.36519e-11
2.79764e-10
7.22061e-07
-9.40726e-16
2.94468e-10
7.33632e-07
-9.36537e-11
2.94466e-10
7.33632e-07
-1.68595e-10
2.79761e-10
7.22061e-07
-2.0997e-10
2.5129e-10
6.99037e-07
-2.10342e-10
2.09967e-10
6.64648e-07
1.58091e-10
6.18367e-07
-1.7407e-10
2.4973e-10
1.25807e-10
6.5633e-07
-2.01943e-10
2.51281e-10
1.6859e-10
6.99037e-07
2.02813e-10
2.02818e-10
7.31091e-07
1.12977e-10
2.26377e-10
7.52656e-07
-2.75307e-16
2.38495e-10
7.63514e-07
-1.12978e-10
2.38494e-10
7.63514e-07
-2.02817e-10
2.26377e-10
7.52656e-07
-2.51288e-10
2.0282e-10
7.31091e-07
-2.49737e-10
1.68594e-10
6.99037e-07
1.25806e-10
6.5633e-07
-2.01945e-10
2.77077e-10
6.96037e-11
6.8152e-07
-2.22983e-10
2.79756e-10
9.36513e-11
7.22061e-07
2.26374e-10
1.12979e-10
7.52656e-07
1.2631e-10
1.26311e-10
7.73281e-07
6.80558e-16
1.33157e-10
7.83673e-07
-1.26309e-10
1.33157e-10
7.83673e-07
-2.26374e-10
1.26312e-10
7.73281e-07
-2.79758e-10
1.12981e-10
7.52656e-07
-2.77079e-10