/*--------------------------------*- C++ -*----------------------------------*\
| =========                 |                                                 |
| \\      /  F ield         | OpenFOAM: The Open Source CFD Toolbox           |
|  \\    /   O peration     | Version:  2412                                  |
|   \\  /    A nd           | Website:  www.openfoam.com                      |
|    \\/     M anipulation  |                                                 |
\*---------------------------------------------------------------------------*/
FoamFile
{
    version     2.0;
    format      ascii;
    arch        "LSB;label=32;scalar=64";
    class       surfaceScalarField;
    location    "0.2";
    object      phi;
}
// * * * * * * * * * * * * * * * * * * * * * * * * * * * * * * * * * * * * * //

dimensions      [0 3 -1 0 0 0 0];

oriented        oriented;

internalField   nonuniform List<scalar> 
43700
(
3.50554e-05
3.50554e-05
5.67904e-05
-3.99497e-05
-3.99497e-05
2.79896e-05
3.49061e-05
6.361e-05
-4.0512e-05
1.93664e-05
3.43001e-05
6.84081e-05
-4.01419e-05
9.87198e-06
3.37124e-05
7.14682e-05
-3.97149e-05
5.65438e-12
3.33716e-05
7.29484e-05
-3.94552e-05
-9.87196e-06
3.33716e-05
7.29484e-05
-3.94552e-05
-1.93663e-05
3.37124e-05
7.14682e-05
-3.97149e-05
-2.79896e-05
3.43001e-05
6.84081e-05
-4.01419e-05
-3.50554e-05
3.49061e-05
6.361e-05
-4.0512e-05
3.50554e-05
5.67904e-05
-3.99497e-05
-3.99497e-05
3.49061e-05
2.79896e-05
6.361e-05
-4.0512e-05
2.72463e-05
2.72463e-05
6.99038e-05
1.8527e-05
2.64289e-05
7.39595e-05
9.34111e-06
2.57681e-05
7.63798e-05
6.91451e-12
2.54048e-05
7.75051e-05
-9.3411e-06
2.54048e-05
7.75051e-05
-1.8527e-05
2.57681e-05
7.63798e-05
-2.72463e-05
2.64289e-05
7.39595e-05
-3.49061e-05
2.72463e-05
6.99039e-05
2.79896e-05
6.361e-05
-4.0512e-05
3.43001e-05
1.93664e-05
6.84081e-05
-4.01419e-05
2.64289e-05
1.8527e-05
7.39595e-05
1.77621e-05
1.77621e-05
7.7321e-05
8.88608e-06
1.71912e-05
7.92091e-05
7.85151e-12
1.68879e-05
8.00508e-05
-8.88607e-06
1.68879e-05
8.00508e-05
-1.77621e-05
1.71912e-05
7.92091e-05
-2.64289e-05
1.77621e-05
7.7321e-05
-3.43001e-05
1.8527e-05
7.39595e-05
1.93664e-05
6.84081e-05
-4.01419e-05
3.37124e-05
9.87197e-06
7.14682e-05
-3.97149e-05
2.57681e-05
9.34111e-06
7.63798e-05
1.71912e-05
8.88608e-06
7.92091e-05
8.55752e-06
8.55752e-06
8.07177e-05
8.11492e-12
8.38584e-06
8.13638e-05
-8.55751e-06
8.38584e-06
8.13638e-05
-1.71912e-05
8.55752e-06
8.07177e-05
-2.57681e-05
8.88608e-06
7.92091e-05
-3.37123e-05
9.34111e-06
7.63798e-05
9.87197e-06
7.14682e-05
-3.97149e-05
3.33716e-05
3.01259e-12
7.29484e-05
-3.94552e-05
2.54049e-05
4.00026e-12
7.75051e-05
1.68879e-05
4.52308e-12
8.00508e-05
8.38584e-06
4.82837e-12
8.13638e-05
8.09664e-12
4.69197e-12
8.19109e-05
-8.38582e-06
4.47363e-12
8.19109e-05
-1.68879e-05
4.38458e-12
8.13638e-05
-2.54048e-05
4.20712e-12
8.00508e-05
-3.33716e-05
3.56665e-12
7.75051e-05
2.7107e-12
7.29484e-05
-3.94552e-05
3.33716e-05
-9.87196e-06
7.29484e-05
-3.94552e-05
2.54049e-05
-9.3411e-06
7.75051e-05
1.68879e-05
-8.88607e-06
8.00508e-05
8.38584e-06
-8.55751e-06
8.13638e-05
7.93444e-12
-8.38583e-06
8.19109e-05
-8.38582e-06
-8.38583e-06
8.19109e-05
-1.68879e-05
-8.55751e-06
8.13638e-05
-2.54048e-05
-8.88607e-06
8.00508e-05
-3.33716e-05
-9.3411e-06
7.75051e-05
-9.87196e-06
7.29484e-05
-3.94552e-05
3.37124e-05
-1.93663e-05
7.14682e-05
-3.97149e-05
2.57681e-05
-1.8527e-05
7.63798e-05
1.71913e-05
-1.77621e-05
7.92091e-05
8.55752e-06
-1.71912e-05
8.07177e-05
7.31483e-12
-1.68879e-05
8.13638e-05
-8.55751e-06
-1.68879e-05
8.13638e-05
-1.71912e-05
-1.71912e-05
8.07177e-05
-2.57681e-05
-1.77621e-05
7.92091e-05
-3.37123e-05
-1.8527e-05
7.63798e-05
-1.93663e-05
7.14682e-05
-3.97149e-05
3.43001e-05
-2.79896e-05
6.84081e-05
-4.01419e-05
2.64289e-05
-2.72463e-05
7.39595e-05
1.77621e-05
-2.64289e-05
7.7321e-05
8.88608e-06
-2.57681e-05
7.92091e-05
7.09663e-12
-2.54048e-05
8.00508e-05
-8.88607e-06
-2.54048e-05
8.00508e-05
-1.77621e-05
-2.57681e-05
7.92091e-05
-2.64289e-05
-2.64289e-05
7.7321e-05
-3.43001e-05
-2.72463e-05
7.39595e-05
-2.79896e-05
6.84081e-05
-4.01419e-05
3.49061e-05
-3.50554e-05
6.361e-05
-4.0512e-05
2.72463e-05
-3.49061e-05
6.99038e-05
1.8527e-05
-3.43001e-05
7.39595e-05
9.34111e-06
-3.37123e-05
7.63798e-05
6.69556e-12
-3.33716e-05
7.75051e-05
-9.3411e-06
-3.33716e-05
7.75051e-05
-1.8527e-05
-3.37123e-05
7.63798e-05
-2.72463e-05
-3.43001e-05
7.39595e-05
-3.49061e-05
-3.49061e-05
6.99039e-05
-3.50554e-05
6.361e-05
-4.0512e-05
3.50554e-05
5.67904e-05
-3.99497e-05
-3.99497e-05
2.79896e-05
6.361e-05
-4.0512e-05
1.93664e-05
6.84081e-05
-4.01419e-05
9.87197e-06
7.14682e-05
-3.97149e-05
6.04557e-12
7.29484e-05
-3.94552e-05
-9.87196e-06
7.29484e-05
-3.94552e-05
-1.93663e-05
7.14682e-05
-3.97149e-05
-2.79896e-05
6.84081e-05
-4.01419e-05
-3.50554e-05
6.361e-05
-4.0512e-05
5.67904e-05
-3.99497e-05
-3.99497e-05
1.98762e-05
1.98762e-05
5.71029e-05
-2.00325e-05
-2.00325e-05
1.73632e-05
2.21649e-05
6.61817e-05
-2.22236e-05
1.27974e-05
2.37475e-05
7.30466e-05
-2.38201e-05
6.7753e-06
2.47451e-05
7.76042e-05
-2.48591e-05
4.89288e-12
2.52218e-05
7.98656e-05
-2.53637e-05
-6.77529e-06
2.52218e-05
7.98656e-05
-2.53637e-05
-1.27974e-05
2.47451e-05
7.76042e-05
-2.48591e-05
-1.73632e-05
2.37475e-05
7.30466e-05
-2.38201e-05
-1.98762e-05
2.21649e-05
6.61817e-05
-2.22236e-05
1.98762e-05
5.71029e-05
-2.00325e-05
-2.00325e-05
2.21649e-05
1.73632e-05
6.61817e-05
-2.22236e-05
1.92434e-05
1.92434e-05
7.57469e-05
1.40668e-05
2.05089e-05
8.23748e-05
7.4017e-06
2.12803e-05
8.65096e-05
6.39644e-12
2.16425e-05
8.84861e-05
-7.40169e-06
2.16425e-05
8.84861e-05
-1.40667e-05
2.12803e-05
8.65096e-05
-1.92434e-05
2.05089e-05
8.23748e-05
-2.21649e-05
1.92434e-05
7.57469e-05
1.73632e-05
6.61817e-05
-2.22236e-05
2.37475e-05
1.27974e-05
7.30466e-05
-2.38201e-05
2.05089e-05
1.40668e-05
8.23748e-05
1.49074e-05
1.49074e-05
8.85238e-05
7.81119e-06
1.54058e-05
9.21799e-05
7.71774e-12
1.56361e-05
9.38685e-05
-7.81117e-06
1.56361e-05
9.38685e-05
-1.49074e-05
1.54058e-05
9.21799e-05
-2.05089e-05
1.49074e-05
8.85238e-05
-2.37475e-05
1.40668e-05
8.23748e-05
1.27974e-05
7.30466e-05
-2.38201e-05
2.47451e-05
6.7753e-06
7.76042e-05
-2.48591e-05
2.12803e-05
7.4017e-06
8.65096e-05
1.54058e-05
7.81119e-06
9.21799e-05
8.0489e-06
8.0489e-06
9.54316e-05
8.6417e-12
8.15735e-06
9.68914e-05
-8.04888e-06
8.15735e-06
9.68914e-05
-1.54058e-05
8.0489e-06
9.54316e-05
-2.12803e-05
7.81119e-06
9.21799e-05
-2.47451e-05
7.4017e-06
8.65096e-05
6.7753e-06
7.76042e-05
-2.48591e-05
2.52218e-05
3.57436e-12
7.98656e-05
-2.53637e-05
2.16425e-05
4.67235e-12
8.84861e-05
1.56361e-05
5.80958e-12
9.38685e-05
8.15736e-06
6.3746e-12
9.68914e-05
9.02531e-12
6.41109e-12
9.82256e-05
-8.15734e-06
6.07314e-12
9.82256e-05
-1.56361e-05
5.52941e-12
9.68914e-05
-2.16425e-05
4.94256e-12
9.38685e-05
-2.52218e-05
4.3037e-12
8.84861e-05
3.36165e-12
7.98656e-05
-2.53637e-05
2.52218e-05
-6.77529e-06
7.98656e-05
-2.53637e-05
2.16425e-05
-7.40169e-06
8.84861e-05
1.56361e-05
-7.81118e-06
9.38685e-05
8.15736e-06
-8.04889e-06
9.68914e-05
8.89065e-12
-8.15734e-06
9.82256e-05
-8.15734e-06
-8.15734e-06
9.82256e-05
-1.56361e-05
-8.04889e-06
9.68914e-05
-2.16425e-05
-7.81118e-06
9.38685e-05
-2.52218e-05
-7.40169e-06
8.84861e-05
-6.77529e-06
7.98656e-05
-2.53637e-05
2.47451e-05
-1.27974e-05
7.76042e-05
-2.48591e-05
2.12803e-05
-1.40667e-05
8.65096e-05
1.54058e-05
-1.49074e-05
9.21799e-05
8.0489e-06
-1.54058e-05
9.54316e-05
8.31226e-12
-1.56361e-05
9.68914e-05
-8.04888e-06
-1.56361e-05
9.68914e-05
-1.54058e-05
-1.54058e-05
9.54316e-05
-2.12803e-05
-1.49074e-05
9.21799e-05
-2.47451e-05
-1.40667e-05
8.65096e-05
-1.27974e-05
7.76042e-05
-2.48591e-05
2.37475e-05
-1.73632e-05
7.30466e-05
-2.38201e-05
2.05089e-05
-1.92434e-05
8.23748e-05
1.49074e-05
-2.05089e-05
8.85238e-05
7.81119e-06
-2.12803e-05
9.21799e-05
7.59158e-12
-2.16425e-05
9.38685e-05
-7.81117e-06
-2.16425e-05
9.38685e-05
-1.49074e-05
-2.12803e-05
9.21799e-05
-2.05089e-05
-2.05089e-05
8.85238e-05
-2.37475e-05
-1.92434e-05
8.23748e-05
-1.73632e-05
7.30466e-05
-2.38201e-05
2.21649e-05
-1.98762e-05
6.61817e-05
-2.22236e-05
1.92434e-05
-2.21649e-05
7.57469e-05
1.40668e-05
-2.37475e-05
8.23748e-05
7.4017e-06
-2.47451e-05
8.65096e-05
6.90454e-12
-2.52218e-05
8.84861e-05
-7.40169e-06
-2.52218e-05
8.84861e-05
-1.40667e-05
-2.47451e-05
8.65096e-05
-1.92434e-05
-2.37475e-05
8.23748e-05
-2.21649e-05
-2.21649e-05
7.57469e-05
-1.98762e-05
6.61817e-05
-2.22236e-05
1.98762e-05
5.71029e-05
-2.00325e-05
-2.00325e-05
1.73632e-05
6.61817e-05
-2.22236e-05
1.27974e-05
7.30466e-05
-2.38201e-05
6.7753e-06
7.76042e-05
-2.48591e-05
5.71547e-12
7.98656e-05
-2.53637e-05
-6.77529e-06
7.98656e-05
-2.53637e-05
-1.27974e-05
7.76042e-05
-2.48591e-05
-1.73632e-05
7.30466e-05
-2.38201e-05
-1.98762e-05
6.61817e-05
-2.22236e-05
5.71029e-05
-2.00325e-05
-2.00325e-05
1.18522e-05
1.18522e-05
5.51369e-05
-1.08692e-05
-1.08692e-05
1.09851e-05
1.39502e-05
6.57001e-05
-1.26014e-05
8.42717e-06
1.54856e-05
7.40336e-05
-1.39146e-05
4.56588e-06
1.65224e-05
7.97608e-05
-1.48177e-05
6.11739e-12
1.70437e-05
8.26632e-05
-1.52754e-05
-4.56586e-06
1.70437e-05
8.26632e-05
-1.52754e-05
-8.42715e-06
1.65224e-05
7.97608e-05
-1.48177e-05
-1.09851e-05
1.54856e-05
7.40336e-05
-1.39146e-05
-1.18522e-05
1.39502e-05
6.57001e-05
-1.26014e-05
1.18522e-05
5.51369e-05
-1.08692e-05
-1.08692e-05
1.39502e-05
1.09851e-05
6.57001e-05
-1.26014e-05
1.29802e-05
1.29802e-05
7.76868e-05
9.93514e-06
1.44213e-05
8.64842e-05
5.36757e-06
1.53679e-05
9.22317e-05
7.68795e-12
1.58368e-05
9.50605e-05
-5.36756e-06
1.58368e-05
9.50605e-05
-9.93513e-06
1.53679e-05
9.22317e-05
-1.29802e-05
1.44213e-05
8.64842e-05
-1.39502e-05
1.29802e-05
7.76868e-05
1.09851e-05
6.57001e-05
-1.26014e-05
1.54856e-05
8.42716e-06
7.40336e-05
-1.39146e-05
1.44213e-05
9.93514e-06
8.64842e-05
1.10262e-05
1.10262e-05
9.53139e-05
5.94911e-06
1.17311e-05
0.000100894
9.28458e-12
1.20766e-05
0.000103578
-5.9491e-06
1.20766e-05
0.000103578
-1.10262e-05
1.17311e-05
0.000100894
-1.44213e-05
1.10262e-05
9.53139e-05
-1.54856e-05
9.93514e-06
8.64842e-05
8.42717e-06
7.40336e-05
-1.39146e-05
1.65224e-05
4.56587e-06
7.97608e-05
-1.48177e-05
1.53679e-05
5.36757e-06
9.22317e-05
1.17311e-05
5.94911e-06
0.000100894
6.32132e-06
6.32132e-06
0.000106251
1.03839e-11
6.50262e-06
0.000108787
-6.3213e-06
6.50262e-06
0.000108787
-1.17311e-05
6.32132e-06
0.000106251
-1.53679e-05
5.94911e-06
0.000100894
-1.65224e-05
5.36757e-06
9.22317e-05
4.56588e-06
7.97608e-05
-1.48177e-05
1.70437e-05
4.17419e-12
8.26632e-05
-1.52754e-05
1.58368e-05
5.42544e-12
9.50605e-05
1.20766e-05
6.74646e-12
0.000103578
6.50262e-06
7.58304e-12
0.000108787
1.09601e-11
7.91577e-12
0.000111231
-6.5026e-06
7.82607e-12
0.000111231
-1.20766e-05
7.3633e-12
0.000108787
-1.58368e-05
6.60432e-12
0.000103578
-1.70437e-05
5.60283e-12
9.50605e-05
4.38053e-12
8.26632e-05
-1.52754e-05
1.70437e-05
-4.56587e-06
8.26632e-05
-1.52754e-05
1.58368e-05
-5.36756e-06
9.50605e-05
1.20766e-05
-5.9491e-06
0.000103578
6.50262e-06
-6.3213e-06
0.000108787
1.10715e-11
-6.5026e-06
0.000111231
-6.5026e-06
-6.5026e-06
0.000111231
-1.20766e-05
-6.32131e-06
0.000108787
-1.58368e-05
-5.9491e-06
0.000103578
-1.70437e-05
-5.36756e-06
9.50605e-05
-4.56587e-06
8.26632e-05
-1.52754e-05
1.65224e-05
-8.42716e-06
7.97608e-05
-1.48177e-05
1.53679e-05
-9.93513e-06
9.22317e-05
1.17311e-05
-1.10262e-05
0.000100894
6.32132e-06
-1.17311e-05
0.000106251
1.06604e-11
-1.20766e-05
0.000108787
-6.3213e-06
-1.20766e-05
0.000108787
-1.17311e-05
-1.17311e-05
0.000106251
-1.53679e-05
-1.10262e-05
0.000100894
-1.65224e-05
-9.93513e-06
9.22317e-05
-8.42716e-06
7.97608e-05
-1.48177e-05
1.54856e-05
-1.09851e-05
7.40336e-05
-1.39146e-05
1.44213e-05
-1.29802e-05
8.64842e-05
1.10262e-05
-1.44213e-05
9.53139e-05
5.94911e-06
-1.53679e-05
0.000100894
9.88295e-12
-1.58368e-05
0.000103578
-5.94909e-06
-1.58368e-05
0.000103578
-1.10262e-05
-1.53679e-05
0.000100894
-1.44213e-05
-1.44213e-05
9.53139e-05
-1.54856e-05
-1.29802e-05
8.64842e-05
-1.09851e-05
7.40336e-05
-1.39146e-05
1.39502e-05
-1.18522e-05
6.57001e-05
-1.26014e-05
1.29802e-05
-1.39502e-05
7.76868e-05
9.93514e-06
-1.54856e-05
8.64842e-05
5.36757e-06
-1.65224e-05
9.22317e-05
8.96996e-12
-1.70437e-05
9.50605e-05
-5.36756e-06
-1.70437e-05
9.50605e-05
-9.93513e-06
-1.65224e-05
9.22317e-05
-1.29802e-05
-1.54856e-05
8.64842e-05
-1.39502e-05
-1.39502e-05
7.76868e-05
-1.18522e-05
6.57001e-05
-1.26014e-05
1.18522e-05
5.51369e-05
-1.08692e-05
-1.08692e-05
1.09851e-05
6.57001e-05
-1.26014e-05
8.42717e-06
7.40336e-05
-1.39146e-05
4.56588e-06
7.97608e-05
-1.48177e-05
7.64289e-12
8.26632e-05
-1.52754e-05
-4.56586e-06
8.26632e-05
-1.52754e-05
-8.42715e-06
7.97608e-05
-1.48177e-05
-1.09851e-05
7.40336e-05
-1.39146e-05
-1.18522e-05
6.57001e-05
-1.26014e-05
5.51369e-05
-1.08692e-05
-1.08692e-05
5.85839e-06
5.85839e-06
5.3741e-05
-5.16042e-06
-5.16042e-06
5.63823e-06
7.24206e-06
6.48777e-05
-6.19952e-06
4.44886e-06
8.34771e-06
7.39322e-05
-7.05696e-06
2.45271e-06
9.13429e-06
8.02948e-05
-7.67207e-06
1.07052e-11
9.54163e-06
8.35654e-05
-7.99111e-06
-2.45269e-06
9.54163e-06
8.35654e-05
-7.99111e-06
-4.44884e-06
9.13429e-06
8.02948e-05
-7.67208e-06
-5.63822e-06
8.34771e-06
7.39322e-05
-7.05696e-06
-5.85838e-06
7.24207e-06
6.48777e-05
-6.19953e-06
5.85839e-06
5.3741e-05
-5.16041e-06
-5.16042e-06
7.24206e-06
5.63823e-06
6.48777e-05
-6.19952e-06
7.05559e-06
7.05558e-06
7.80597e-05
5.58282e-06
8.17673e-06
8.81279e-05
3.07742e-06
8.95781e-06
9.49136e-05
1.26139e-11
9.35828e-06
9.83213e-05
-3.07739e-06
9.35828e-06
9.83213e-05
-5.5828e-06
8.95781e-06
9.49136e-05
-7.05557e-06
8.17673e-06
8.81279e-05
-7.24205e-06
7.05559e-06
7.80597e-05
5.63823e-06
6.48777e-05
-6.19952e-06
8.34771e-06
4.44886e-06
7.39322e-05
-7.05696e-06
8.17673e-06
5.58282e-06
8.81279e-05
6.48257e-06
6.48256e-06
9.87023e-05
3.57462e-06
7.10178e-06
0.000105658
1.42845e-11
7.41694e-06
0.000109094
-3.57459e-06
7.41694e-06
0.000109094
-6.48254e-06
7.10178e-06
0.000105658
-8.17671e-06
6.48257e-06
9.87023e-05
-8.3477e-06
5.58282e-06
8.81279e-05
4.44886e-06
7.39322e-05
-7.05695e-06
9.13429e-06
2.45271e-06
8.02948e-05
-7.67208e-06
8.95781e-06
3.07741e-06
9.49136e-05
7.10178e-06
3.57462e-06
0.000105658
3.91466e-06
3.91466e-06
0.000112625
1.55482e-11
4.087e-06
0.000116031
-3.91463e-06
4.087e-06
0.000116031
-7.10176e-06
3.91466e-06
0.000112625
-8.95779e-06
3.57462e-06
0.000105658
-9.13427e-06
3.07742e-06
9.49136e-05
2.45271e-06
8.02948e-05
-7.67206e-06
9.54163e-06
7.35954e-12
8.35654e-05
-7.99111e-06
9.35828e-06
8.98799e-12
9.83213e-05
7.41694e-06
1.05299e-11
0.000109094
4.087e-06
1.16054e-11
0.000116031
1.63373e-11
1.22317e-11
0.000119405
-4.08697e-06
1.23978e-11
0.000119405
-7.41691e-06
1.21024e-11
0.000116031
-9.35826e-06
1.1382e-11
0.000109094
-9.54162e-06
1.03196e-11
9.83213e-05
8.95427e-12
8.35654e-05
-7.9911e-06
9.54163e-06
-2.45269e-06
8.35654e-05
-7.99111e-06
9.35828e-06
-3.0774e-06
9.83213e-05
7.41694e-06
-3.5746e-06
0.000109094
4.087e-06
-3.91464e-06
0.000116031
1.66233e-11
-4.08697e-06
0.000119405
-4.08697e-06
-4.08697e-06
0.000119405
-7.41691e-06
-3.91464e-06
0.000116031
-9.35826e-06
-3.57459e-06
0.000109094
-9.54162e-06
-3.0774e-06
9.83213e-05
-2.45269e-06
8.35654e-05
-7.9911e-06
9.13429e-06
-4.44884e-06
8.02948e-05
-7.67208e-06
8.95781e-06
-5.5828e-06
9.49136e-05
7.10179e-06
-6.48255e-06
0.000105658
3.91466e-06
-7.10176e-06
0.000112625
1.63409e-11
-7.41692e-06
0.000116031
-3.91463e-06
-7.41692e-06
0.000116031
-7.10176e-06
-7.10176e-06
0.000112625
-8.95779e-06
-6.48255e-06
0.000105658
-9.13427e-06
-5.5828e-06
9.49136e-05
-4.44884e-06
8.02948e-05
-7.67206e-06
8.34771e-06
-5.63822e-06
7.39322e-05
-7.05696e-06
8.17673e-06
-7.05557e-06
8.81279e-05
6.48257e-06
-8.17671e-06
9.87023e-05
3.57462e-06
-8.95779e-06
0.000105658
1.55425e-11
-9.35826e-06
0.000109094
-3.57459e-06
-9.35826e-06
0.000109094
-6.48254e-06
-8.95779e-06
0.000105658
-8.17671e-06
-8.17671e-06
9.87023e-05
-8.3477e-06
-7.05557e-06
8.81279e-05
-5.63822e-06
7.39322e-05
-7.05695e-06
7.24207e-06
-5.85838e-06
6.48777e-05
-6.19953e-06
7.05559e-06
-7.24205e-06
7.80597e-05
5.58282e-06
-8.3477e-06
8.81279e-05
3.07742e-06
-9.13427e-06
9.49136e-05
1.44537e-11
-9.54162e-06
9.83213e-05
-3.07739e-06
-9.54162e-06
9.83213e-05
-5.5828e-06
-9.13427e-06
9.49136e-05
-7.05557e-06
-8.3477e-06
8.81279e-05
-7.24205e-06
-7.24205e-06
7.80598e-05
-5.85838e-06
6.48777e-05
-6.19951e-06
5.85839e-06
5.3741e-05
-5.16041e-06
-5.16042e-06
5.63823e-06
6.48777e-05
-6.19952e-06
4.44886e-06
7.39322e-05
-7.05695e-06
2.45271e-06
8.02948e-05
-7.67207e-06
1.29029e-11
8.35654e-05
-7.9911e-06
-2.45269e-06
8.35654e-05
-7.9911e-06
-4.44884e-06
8.02948e-05
-7.67207e-06
-5.63822e-06
7.39322e-05
-7.05695e-06
-5.85838e-06
6.48777e-05
-6.19952e-06
5.3741e-05
-5.16041e-06
-5.16041e-06
3.13767e-06
3.13767e-06
5.28084e-05
-2.67141e-06
-2.67141e-06
3.08997e-06
3.94011e-06
6.42304e-05
-3.24518e-06
2.4798e-06
4.60197e-06
7.36666e-05
-3.72625e-06
1.38132e-06
5.08603e-06
8.03851e-05
-4.07787e-06
1.7841e-11
5.34122e-06
8.38681e-05
-4.26266e-06
-1.38128e-06
5.34122e-06
8.38681e-05
-4.26266e-06
-2.47977e-06
5.08603e-06
8.03851e-05
-4.07787e-06
-3.08994e-06
4.60197e-06
7.36666e-05
-3.72625e-06
-3.13765e-06
3.94011e-06
6.42305e-05
-3.24518e-06
3.13767e-06
5.28085e-05
-2.67139e-06
-2.67141e-06
3.94011e-06
3.08997e-06
6.42305e-05
-3.24518e-06
3.94929e-06
3.94929e-06
7.80414e-05
3.19027e-06
4.65771e-06
8.88312e-05
1.78084e-06
5.16769e-06
9.62414e-05
2.07025e-11
5.43454e-06
0.000100009
-1.7808e-06
5.43454e-06
0.000100009
-3.19023e-06
5.16769e-06
9.62414e-05
-3.94926e-06
4.65771e-06
8.88312e-05
-3.94009e-06
3.94929e-06
7.80414e-05
3.08997e-06
6.42305e-05
-3.24517e-06
4.60197e-06
2.4798e-06
7.36666e-05
-3.72625e-06
4.65771e-06
3.19027e-06
8.88312e-05
3.78147e-06
3.78146e-06
0.000100455
2.11547e-06
4.20349e-06
0.000108288
2.29465e-11
4.42312e-06
0.000112221
-2.11543e-06
4.42312e-06
0.000112221
-3.78142e-06
4.20349e-06
0.000108288
-4.65768e-06
3.78147e-06
0.000100455
-4.60195e-06
3.19027e-06
8.88312e-05
2.4798e-06
7.36666e-05
-3.72623e-06
5.08603e-06
1.38131e-06
8.03851e-05
-4.07787e-06
5.16769e-06
1.78083e-06
9.62414e-05
4.20349e-06
2.11547e-06
0.000108288
2.35341e-06
2.35341e-06
0.000116326
2.46822e-11
2.47686e-06
0.000120331
-2.35336e-06
2.47686e-06
0.000120331
-4.20345e-06
2.35341e-06
0.000116326
-5.16766e-06
2.11547e-06
0.000108288
-5.086e-06
1.78084e-06
9.62414e-05
1.38132e-06
8.03851e-05
-4.07785e-06
5.34122e-06
1.2634e-11
8.38681e-05
-4.26266e-06
5.43454e-06
1.5248e-11
0.000100009
4.42313e-06
1.74842e-11
0.000112221
2.47686e-06
1.92313e-11
0.000120331
2.59326e-11
2.05324e-11
0.000124358
-2.47681e-06
2.12436e-11
0.000124358
-4.42308e-06
2.12078e-11
0.000120331
-5.4345e-06
2.03636e-11
0.000112221
-5.34119e-06
1.88293e-11
0.000100009
1.68163e-11
8.38681e-05
-4.26264e-06
5.34122e-06
-1.38129e-06
8.38681e-05
-4.26266e-06
5.43454e-06
-1.7808e-06
0.000100009
4.42313e-06
-2.11544e-06
0.000112221
2.47687e-06
-2.35337e-06
0.000120331
2.65971e-11
-2.47682e-06
0.000124358
-2.47681e-06
-2.47682e-06
0.000124358
-4.42308e-06
-2.35337e-06
0.000120331
-5.4345e-06
-2.11543e-06
0.000112221
-5.34119e-06
-1.7808e-06
0.000100009
-1.38128e-06
8.38681e-05
-4.26264e-06
5.08603e-06
-2.47978e-06
8.03851e-05
-4.07787e-06
5.1677e-06
-3.19024e-06
9.62414e-05
4.2035e-06
-3.78143e-06
0.000108288
2.35341e-06
-4.20346e-06
0.000116326
2.64792e-11
-4.42309e-06
0.000120331
-2.35336e-06
-4.42309e-06
0.000120331
-4.20345e-06
-4.20346e-06
0.000116326
-5.16766e-06
-3.78143e-06
0.000108288
-5.086e-06
-3.19024e-06
9.62414e-05
-2.47977e-06
8.03851e-05
-4.07785e-06
4.60197e-06
-3.08995e-06
7.36666e-05
-3.72625e-06
4.65772e-06
-3.94926e-06
8.88312e-05
3.78147e-06
-4.65769e-06
0.000100455
2.11548e-06
-5.16766e-06
0.000108288
2.55101e-11
-5.43451e-06
0.000112221
-2.11543e-06
-5.43451e-06
0.000112221
-3.78142e-06
-5.16766e-06
0.000108288
-4.65768e-06
-4.65769e-06
0.000100455
-4.60195e-06
-3.94926e-06
8.88312e-05
-3.08995e-06
7.36666e-05
-3.72623e-06
3.94011e-06
-3.13765e-06
6.42305e-05
-3.24518e-06
3.94929e-06
-3.94009e-06
7.80414e-05
3.19027e-06
-4.60195e-06
8.88312e-05
1.78084e-06
-5.08601e-06
9.62414e-05
2.3874e-11
-5.34119e-06
0.000100009
-1.7808e-06
-5.34119e-06
0.000100009
-3.19023e-06
-5.08601e-06
9.62414e-05
-3.94926e-06
-4.60195e-06
8.88312e-05
-3.94009e-06
-3.94009e-06
7.80414e-05
-3.13765e-06
6.42305e-05
-3.24517e-06
3.13767e-06
5.28085e-05
-2.6714e-06
-2.67141e-06
3.08997e-06
6.42305e-05
-3.24517e-06
2.47981e-06
7.36666e-05
-3.72623e-06
1.38132e-06
8.03851e-05
-4.07785e-06
2.15026e-11
8.38681e-05
-4.26265e-06
-1.38128e-06
8.38681e-05
-4.26265e-06
-2.47977e-06
8.03851e-05
-4.07785e-06
-3.08994e-06
7.36666e-05
-3.72624e-06
-3.13765e-06
6.42305e-05
-3.24517e-06
5.28085e-05
-2.67139e-06
-2.6714e-06
1.64165e-06
1.64164e-06
5.2289e-05
-1.3819e-06
-1.3819e-06
1.63973e-06
2.09451e-06
6.38333e-05
-1.69545e-06
1.33154e-06
2.48019e-06
7.34598e-05
-1.9652e-06
7.47447e-07
2.76793e-06
8.03662e-05
-2.16495e-06
2.58131e-11
2.9214e-06
8.39648e-05
-2.27069e-06
-7.47397e-07
2.9214e-06
8.39648e-05
-2.2707e-06
-1.33149e-06
2.76793e-06
8.03662e-05
-2.16495e-06
-1.6397e-06
2.48019e-06
7.34598e-05
-1.9652e-06
-1.64161e-06
2.09452e-06
6.38333e-05
-1.69546e-06
1.64165e-06
5.2289e-05
-1.38188e-06
-1.3819e-06
2.09452e-06
1.63973e-06
6.38333e-05
-1.69545e-06
2.1383e-06
2.1383e-06
7.79538e-05
1.75299e-06
2.56461e-06
8.91321e-05
9.87823e-07
2.87923e-06
9.68952e-05
3.03087e-11
3.04629e-06
0.000100872
-9.87764e-07
3.04629e-06
0.000100872
-1.75293e-06
2.87923e-06
9.68952e-05
-2.13826e-06
2.56461e-06
8.91321e-05
-2.09448e-06
2.13831e-06
7.79538e-05
1.63974e-06
6.38333e-05
-1.69543e-06
2.48019e-06
1.33153e-06
7.34598e-05
-1.9652e-06
2.56461e-06
1.75298e-06
8.91321e-05
2.11768e-06
2.11768e-06
0.000101349
1.19749e-06
2.38542e-06
0.000109702
3.38452e-11
2.52711e-06
0.000113937
-1.19742e-06
2.52711e-06
0.000113937
-2.11762e-06
2.38542e-06
0.000109702
-2.56456e-06
2.11768e-06
0.000101349
-2.48015e-06
1.75299e-06
8.91321e-05
1.33154e-06
7.34599e-05
-1.96517e-06
2.76793e-06
7.4744e-07
8.03662e-05
-2.16495e-06
2.87923e-06
9.87816e-07
9.68952e-05
2.38542e-06
1.19748e-06
0.000109702
1.35108e-06
1.35107e-06
0.000118394
3.6673e-11
1.4322e-06
0.000122777
-1.35101e-06
1.43221e-06
0.000122777
-2.38536e-06
1.35108e-06
0.000118394
-2.87918e-06
1.19749e-06
0.000109702
-2.76789e-06
9.87825e-07
9.68953e-05
7.47451e-07
8.03662e-05
-2.16492e-06
2.9214e-06
1.77468e-11
8.39648e-05
-2.27069e-06
3.04629e-06
2.20946e-11
0.000100872
2.52711e-06
2.58224e-11
0.000113937
1.43221e-06
2.89623e-11
0.000122777
3.89493e-11
3.16161e-11
0.000127223
-1.43213e-06
3.33839e-11
0.000127223
-2.52704e-06
3.38337e-11
0.000122777
-3.04623e-06
3.27508e-11
0.000113937
-2.92136e-06
3.03494e-11
0.000100872
2.71038e-11
8.39649e-05
-2.27066e-06
2.9214e-06
-7.47406e-07
8.39648e-05
-2.2707e-06
3.04629e-06
-9.87773e-07
0.000100872
2.52711e-06
-1.19743e-06
0.000113937
1.43221e-06
-1.35102e-06
0.000122777
4.04036e-11
-1.43214e-06
0.000127223
-1.43213e-06
-1.43214e-06
0.000127223
-2.52704e-06
-1.35101e-06
0.000122777
-3.04623e-06
-1.19742e-06
0.000113937
-2.92136e-06
-9.87766e-07
0.000100872
-7.47399e-07
8.39649e-05
-2.27066e-06
2.76793e-06
-1.3315e-06
8.03662e-05
-2.16495e-06
2.87923e-06
-1.75294e-06
9.68952e-05
2.38543e-06
-2.11763e-06
0.000109702
1.35108e-06
-2.38537e-06
0.000118394
4.06547e-11
-2.52705e-06
0.000122777
-1.351e-06
-2.52705e-06
0.000122777
-2.38536e-06
-2.38536e-06
0.000118394
-2.87918e-06
-2.11763e-06
0.000109702
-2.76789e-06
-1.75294e-06
9.68953e-05
-1.3315e-06
8.03663e-05
-2.16492e-06
2.48019e-06
-1.6397e-06
7.34598e-05
-1.9652e-06
2.56462e-06
-2.13827e-06
8.91321e-05
2.11769e-06
-2.56457e-06
0.000101349
1.19749e-06
-2.87918e-06
0.000109702
3.93836e-11
-3.04624e-06
0.000113937
-1.19742e-06
-3.04624e-06
0.000113937
-2.11762e-06
-2.87918e-06
0.000109702
-2.56456e-06
-2.56457e-06
0.000101349
-2.48015e-06
-2.13826e-06
8.91321e-05
-1.6397e-06
7.34599e-05
-1.96517e-06
2.09452e-06
-1.64162e-06
6.38333e-05
-1.69545e-06
2.13831e-06
-2.09449e-06
7.79538e-05
1.75299e-06
-2.48016e-06
8.91321e-05
9.8783e-07
-2.7679e-06
9.68952e-05
3.67798e-11
-2.92136e-06
0.000100872
-9.87759e-07
-2.92136e-06
0.000100872
-1.75293e-06
-2.7679e-06
9.68953e-05
-2.13826e-06
-2.48016e-06
8.91321e-05
-2.09448e-06
-2.09449e-06
7.79539e-05
-1.64162e-06
6.38333e-05
-1.69543e-06
1.64165e-06
5.2289e-05
-1.38189e-06
-1.3819e-06
1.63974e-06
6.38333e-05
-1.69543e-06
1.33155e-06
7.34599e-05
-1.96518e-06
7.47455e-07
8.03662e-05
-2.16493e-06
3.29437e-11
8.39649e-05
-2.27067e-06
-7.47392e-07
8.39649e-05
-2.27067e-06
-1.33149e-06
8.03663e-05
-2.16493e-06
-1.63969e-06
7.34599e-05
-1.96518e-06
-1.64161e-06
6.38333e-05
-1.69543e-06
5.2289e-05
-1.38188e-06
-1.38188e-06
9.08972e-07
9.08967e-07
5.1988e-05
-7.58467e-07
-7.58464e-07
9.14055e-07
1.16302e-06
6.35971e-05
-9.31871e-07
7.46447e-07
1.38205e-06
7.33271e-05
-1.08171e-06
4.20574e-07
1.54728e-06
8.03381e-05
-1.19332e-06
3.29467e-11
1.63605e-06
8.4002e-05
-1.25264e-06
-4.20509e-07
1.63605e-06
8.4002e-05
-1.25264e-06
-7.46387e-07
1.54728e-06
8.03381e-05
-1.19332e-06
-9.14004e-07
1.38205e-06
7.33271e-05
-1.08172e-06
-9.08932e-07
1.16303e-06
6.35971e-05
-9.31877e-07
9.08977e-07
5.1988e-05
-7.5844e-07
-7.58469e-07
1.16302e-06
9.14047e-07
6.35971e-05
-9.31874e-07
1.19808e-06
1.19807e-06
7.78837e-05
9.89595e-07
1.44529e-06
8.92773e-05
5.60424e-07
1.63047e-06
9.72412e-05
3.9579e-11
1.72972e-06
0.000101338
-5.60347e-07
1.72973e-06
0.000101338
-9.89523e-07
1.63047e-06
9.72412e-05
-1.19802e-06
1.4453e-06
8.92774e-05
-1.16298e-06
1.19809e-06
7.78837e-05
9.14065e-07
6.35971e-05
-9.3184e-07
1.38205e-06
7.46437e-07
7.33271e-05
-1.08171e-06
1.4453e-06
9.89585e-07
8.92773e-05
1.20459e-06
1.20458e-06
0.00010183
6.85341e-07
1.36523e-06
0.000110487
4.51148e-11
1.45119e-06
0.000114901
-6.85252e-07
1.45119e-06
0.000114901
-1.20451e-06
1.36524e-06
0.000110487
-1.44523e-06
1.20459e-06
0.00010183
-1.382e-06
9.89601e-07
8.92774e-05
7.46456e-07
7.33271e-05
-1.08168e-06
1.54728e-06
4.20562e-07
8.03381e-05
-1.19332e-06
1.63047e-06
5.60412e-07
9.72412e-05
1.36524e-06
6.8533e-07
0.000110487
7.78632e-07
7.78622e-07
0.000119567
4.97632e-11
8.28501e-07
0.000124178
-7.78535e-07
8.28505e-07
0.000124178
-1.36515e-06
7.78632e-07
0.000119567
-1.6304e-06
6.85344e-07
0.000110487
-1.54723e-06
5.6043e-07
9.72413e-05
4.20582e-07
8.03382e-05
-1.19328e-06
1.63605e-06
2.02622e-11
8.4002e-05
-1.25265e-06
1.72973e-06
2.68252e-11
0.000101338
1.4512e-06
3.28823e-11
0.000114901
8.28511e-07
3.83422e-11
0.000124178
5.38048e-11
4.32356e-11
0.00012888
-8.28406e-07
4.67472e-11
0.00012888
-1.4511e-06
4.80685e-11
0.000124178
-1.72965e-06
4.6804e-11
0.000114901
-1.63599e-06
4.34025e-11
0.000101338
3.87121e-11
8.4002e-05
-1.2526e-06
1.63605e-06
-4.20523e-07
8.4002e-05
-1.25265e-06
1.72973e-06
-5.6036e-07
0.000101338
1.4512e-06
-6.85266e-07
0.000114901
8.28513e-07
-7.78547e-07
0.000124178
5.663e-11
-8.28417e-07
0.00012888
-8.28404e-07
-8.28414e-07
0.00012888
-1.4511e-06
-7.78539e-07
0.000124178
-1.72965e-06
-6.85254e-07
0.000114901
-1.63599e-06
-5.60346e-07
0.000101338
-4.20507e-07
8.4002e-05
-1.2526e-06
1.54729e-06
-7.464e-07
8.03381e-05
-1.19332e-06
1.63048e-06
-9.89537e-07
9.72412e-05
1.36524e-06
-1.20452e-06
0.000110487
7.7864e-07
-1.36516e-06
0.000119567
5.75102e-11
-1.45111e-06
0.000124178
-7.7853e-07
-1.45111e-06
0.000124178
-1.36514e-06
-1.36515e-06
0.000119567
-1.6304e-06
-1.20452e-06
0.000110487
-1.54723e-06
-9.89527e-07
9.72413e-05
-7.46389e-07
8.03382e-05
-1.19328e-06
1.38206e-06
-9.14016e-07
7.33271e-05
-1.08172e-06
1.44531e-06
-1.19803e-06
8.92774e-05
1.2046e-06
-1.44524e-06
0.00010183
6.85352e-07
-1.63041e-06
0.000110487
5.58589e-11
-1.72966e-06
0.000114901
-6.85245e-07
-1.72966e-06
0.000114901
-1.20451e-06
-1.63041e-06
0.000110487
-1.44523e-06
-1.44524e-06
0.00010183
-1.382e-06
-1.19802e-06
8.92774e-05
-9.14009e-07
7.33272e-05
-1.08168e-06
1.16303e-06
-9.08942e-07
6.35971e-05
-9.31876e-07
1.19809e-06
-1.16299e-06
7.78837e-05
9.89606e-07
-1.38201e-06
8.92774e-05
5.60437e-07
-1.54724e-06
9.72412e-05
5.19234e-11
-1.636e-06
0.000101338
-5.60337e-07
-1.636e-06
0.000101338
-9.89518e-07
-1.54723e-06
9.72413e-05
-1.19802e-06
-1.38201e-06
8.92774e-05
-1.16298e-06
-1.16298e-06
7.78838e-05
-9.08939e-07
6.35971e-05
-9.31842e-07
9.08978e-07
5.1988e-05
-7.58446e-07
-7.5847e-07
9.14066e-07
6.35971e-05
-9.31848e-07
7.4646e-07
7.33271e-05
-1.08168e-06
4.20588e-07
8.03382e-05
-1.19329e-06
4.61786e-11
8.4002e-05
-1.25261e-06
-4.20499e-07
8.4002e-05
-1.25261e-06
-7.46382e-07
8.03382e-05
-1.19329e-06
-9.14002e-07
7.33272e-05
-1.08168e-06
-9.08933e-07
6.35971e-05
-9.31848e-07
5.1988e-05
-7.58439e-07
-7.58444e-07
5.05356e-07
5.05348e-07
5.18189e-05
-4.20818e-07
-4.20813e-07
5.10167e-07
6.49145e-07
6.34612e-05
-5.18138e-07
4.18147e-07
7.74372e-07
7.32476e-05
-6.02837e-07
2.36208e-07
8.69488e-07
8.03167e-05
-6.66155e-07
3.84583e-11
9.20801e-07
8.40172e-05
-6.99881e-07
-2.36133e-07
9.20804e-07
8.40172e-05
-6.99883e-07
-4.18077e-07
8.69497e-07
8.03167e-05
-6.6616e-07
-5.10106e-07
7.74385e-07
7.32476e-05
-6.02846e-07
-5.05309e-07
6.49159e-07
6.34613e-05
-5.18147e-07
5.05364e-07
5.18189e-05
-4.20785e-07
-4.20821e-07
6.49155e-07
5.10155e-07
6.34612e-05
-5.18144e-07
6.72317e-07
6.72305e-07
7.78374e-05
5.58034e-07
8.15245e-07
8.93507e-05
3.1709e-07
9.23332e-07
9.74283e-05
4.73326e-11
9.81613e-07
0.000101595
-3.16997e-07
9.81616e-07
0.000101595
-5.57949e-07
9.23342e-07
9.74283e-05
-6.72247e-07
8.15263e-07
8.93508e-05
-6.49098e-07
6.72329e-07
7.78374e-05
5.10182e-07
6.34613e-05
-5.18102e-07
7.74381e-07
4.18132e-07
7.32476e-05
-6.02844e-07
8.15257e-07
5.58018e-07
8.93507e-05
6.8354e-07
6.83524e-07
0.000102093
3.90478e-07
7.78382e-07
0.000110925
5.52986e-11
8.29509e-07
0.000115444
-3.9037e-07
8.29514e-07
0.000115444
-6.83439e-07
7.78395e-07
0.000110925
-8.15175e-07
6.83544e-07
0.000102094
-7.74318e-07
5.58045e-07
8.93508e-05
4.18163e-07
7.32476e-05
-6.028e-07
8.69497e-07
2.36191e-07
8.03167e-05
-6.66162e-07
9.23344e-07
3.17071e-07
9.74283e-05
7.78397e-07
3.90461e-07
0.000110925
4.45987e-07
4.45971e-07
0.000120232
6.23032e-11
4.7589e-07
0.000124978
-4.45865e-07
4.75896e-07
0.000124978
-7.78285e-07
4.45987e-07
0.000120232
-9.23252e-07
3.90485e-07