/*--------------------------------*- C++ -*----------------------------------*\
| =========                 |                                                 |
| \\      /  F ield         | OpenFOAM: The Open Source CFD Toolbox           |
|  \\    /   O peration     | Version:  2412                                  |
|   \\  /    A nd           | Website:  www.openfoam.com                      |
|    \\/     M anipulation  |                                                 |
\*---------------------------------------------------------------------------*/
FoamFile
{
    version     2.0;
    format      ascii;
    arch        "LSB;label=32;scalar=64";
    class       volVectorField;
    location    "0.2";
    object      U;
}
// * * * * * * * * * * * * * * * * * * * * * * * * * * * * * * * * * * * * * //

dimensions      [0 1 -1 0 0 0 0];

internalField   nonuniform List<vector> 
15000
(
(0.228908 0.228907 1.09642)
(0.185942 0.242203 1.11728)
(0.134987 0.248633 1.12521)
(0.0815406 0.251801 1.12745)
(0.0272526 0.25306 1.12771)
(-0.0272525 0.25306 1.12771)
(-0.0815406 0.251801 1.12745)
(-0.134987 0.248633 1.12521)
(-0.185942 0.242203 1.11728)
(-0.228907 0.228907 1.09642)
(0.242203 0.185942 1.11728)
(0.191435 0.191435 1.13034)
(0.135769 0.193538 1.13005)
(0.0807933 0.194086 1.12631)
(0.0268006 0.194068 1.12356)
(-0.0268005 0.194068 1.12356)
(-0.0807933 0.194086 1.12631)
(-0.135769 0.193538 1.13005)
(-0.191435 0.191435 1.13034)
(-0.242203 0.185942 1.11728)
(0.248633 0.134987 1.12521)
(0.193538 0.135769 1.13005)
(0.135542 0.135542 1.1239)
(0.0798358 0.13488 1.11643)
(0.0263313 0.134349 1.11191)
(-0.0263312 0.134349 1.11191)
(-0.0798357 0.13488 1.11643)
(-0.135542 0.135542 1.1239)
(-0.193538 0.135769 1.13005)
(-0.248633 0.134987 1.12521)
(0.251801 0.0815406 1.12745)
(0.194086 0.0807933 1.12631)
(0.13488 0.0798357 1.11643)
(0.0789166 0.0789166 1.10682)
(0.0259287 0.0783471 1.10132)
(-0.0259286 0.0783471 1.10132)
(-0.0789165 0.0789166 1.10682)
(-0.13488 0.0798357 1.11643)
(-0.194086 0.0807933 1.12631)
(-0.251801 0.0815406 1.12745)
(0.25306 0.0272526 1.12771)
(0.194068 0.0268006 1.12356)
(0.134349 0.0263313 1.11191)
(0.0783471 0.0259287 1.10132)
(0.0256934 0.0256933 1.09541)
(-0.0256933 0.0256933 1.09541)
(-0.078347 0.0259287 1.10132)
(-0.134349 0.0263313 1.11191)
(-0.194068 0.0268006 1.12356)
(-0.25306 0.0272526 1.12771)
(0.25306 -0.0272525 1.12771)
(0.194068 -0.0268006 1.12356)
(0.134349 -0.0263312 1.11191)
(0.0783471 -0.0259287 1.10132)
(0.0256933 -0.0256933 1.09541)
(-0.0256933 -0.0256933 1.09541)
(-0.078347 -0.0259287 1.10132)
(-0.134349 -0.0263312 1.11191)
(-0.194068 -0.0268006 1.12356)
(-0.25306 -0.0272525 1.12771)
(0.251801 -0.0815406 1.12745)
(0.194086 -0.0807933 1.12631)
(0.13488 -0.0798357 1.11643)
(0.0789166 -0.0789165 1.10682)
(0.0259287 -0.078347 1.10132)
(-0.0259286 -0.078347 1.10132)
(-0.0789165 -0.0789165 1.10682)
(-0.13488 -0.0798357 1.11643)
(-0.194086 -0.0807933 1.12631)
(-0.251801 -0.0815406 1.12745)
(0.248633 -0.134987 1.12521)
(0.193538 -0.135769 1.13005)
(0.135542 -0.135542 1.1239)
(0.0798358 -0.13488 1.11643)
(0.0263313 -0.134349 1.11191)
(-0.0263312 -0.134349 1.11191)
(-0.0798357 -0.13488 1.11643)
(-0.135542 -0.135542 1.1239)
(-0.193538 -0.135769 1.13005)
(-0.248633 -0.134987 1.12521)
(0.242203 -0.185942 1.11728)
(0.191435 -0.191435 1.13034)
(0.135769 -0.193538 1.13005)
(0.0807933 -0.194086 1.12631)
(0.0268006 -0.194068 1.12356)
(-0.0268005 -0.194068 1.12356)
(-0.0807933 -0.194086 1.12631)
(-0.135769 -0.193538 1.13005)
(-0.191435 -0.191435 1.13034)
(-0.242203 -0.185942 1.11728)
(0.228907 -0.228907 1.09642)
(0.185942 -0.242203 1.11728)
(0.134987 -0.248633 1.12521)
(0.0815407 -0.251801 1.12745)
(0.0272526 -0.25306 1.12771)
(-0.0272525 -0.25306 1.12771)
(-0.0815406 -0.251801 1.12745)
(-0.134987 -0.248633 1.12521)
(-0.185942 -0.242203 1.11728)
(-0.228907 -0.228907 1.09642)
(0.119433 0.119433 1.27601)
(0.105305 0.142195 1.33638)
(0.0822748 0.160323 1.37029)
(0.0523248 0.17285 1.3878)
(0.017935 0.179205 1.39498)
(-0.0179349 0.179205 1.39498)
(-0.0523247 0.17285 1.3878)
(-0.0822748 0.160323 1.37029)
(-0.105305 0.142195 1.33638)
(-0.119433 0.119433 1.27601)
(0.142195 0.105305 1.33638)
(0.125602 0.125602 1.3917)
(0.097416 0.141608 1.41407)
(0.0614424 0.152425 1.4211)
(0.0209593 0.157837 1.42242)
(-0.0209592 0.157837 1.42242)
(-0.0614423 0.152425 1.4211)
(-0.0974159 0.141608 1.41407)
(-0.125602 0.125602 1.3917)
(-0.142195 0.105305 1.33638)
(0.160323 0.0822748 1.37029)
(0.141608 0.097416 1.41407)
(0.109224 0.109224 1.42562)
(0.0684584 0.117081 1.42434)
(0.023269 0.120977 1.42122)
(-0.0232689 0.120977 1.42122)
(-0.0684583 0.117081 1.42434)
(-0.109224 0.109224 1.42562)
(-0.141608 0.097416 1.41407)
(-0.160323 0.0822748 1.37029)
(0.17285 0.0523248 1.3878)
(0.152425 0.0614424 1.4211)
(0.117082 0.0684584 1.42434)
(0.073079 0.073079 1.41725)
(0.0247827 0.0753577 1.41115)
(-0.0247826 0.0753577 1.41115)
(-0.0730789 0.0730789 1.41725)
(-0.117081 0.0684584 1.42434)
(-0.152425 0.0614424 1.4211)
(-0.172849 0.0523248 1.3878)
(0.179205 0.017935 1.39498)
(0.157837 0.0209593 1.42242)
(0.120977 0.023269 1.42122)
(0.0753577 0.0247827 1.41115)
(0.0255273 0.0255273 1.40355)
(-0.0255272 0.0255273 1.40355)
(-0.0753576 0.0247827 1.41115)
(-0.120977 0.023269 1.42122)
(-0.157837 0.0209593 1.42242)
(-0.179205 0.017935 1.39498)
(0.179205 -0.0179349 1.39498)
(0.157837 -0.0209592 1.42242)
(0.120977 -0.0232689 1.42122)
(0.0753577 -0.0247826 1.41115)
(0.0255273 -0.0255272 1.40355)
(-0.0255272 -0.0255272 1.40355)
(-0.0753576 -0.0247826 1.41115)
(-0.120977 -0.0232689 1.42122)
(-0.157837 -0.0209592 1.42242)
(-0.179205 -0.0179349 1.39498)
(0.17285 -0.0523247 1.3878)
(0.152425 -0.0614424 1.4211)
(0.117082 -0.0684583 1.42434)
(0.073079 -0.0730789 1.41725)
(0.0247827 -0.0753576 1.41115)
(-0.0247826 -0.0753576 1.41115)
(-0.0730789 -0.0730789 1.41725)
(-0.117081 -0.0684583 1.42434)
(-0.152425 -0.0614424 1.4211)
(-0.172849 -0.0523247 1.3878)
(0.160323 -0.0822748 1.37029)
(0.141608 -0.0974159 1.41407)
(0.109224 -0.109224 1.42562)
(0.0684584 -0.117081 1.42434)
(0.023269 -0.120977 1.42122)
(-0.0232689 -0.120977 1.42122)
(-0.0684583 -0.117081 1.42434)
(-0.109224 -0.109224 1.42562)
(-0.141608 -0.0974159 1.41407)
(-0.160323 -0.0822748 1.37029)
(0.142195 -0.105305 1.33638)
(0.125602 -0.125602 1.3917)
(0.097416 -0.141608 1.41407)
(0.0614424 -0.152425 1.4211)
(0.0209593 -0.157837 1.42242)
(-0.0209592 -0.157837 1.42242)
(-0.0614423 -0.152425 1.4211)
(-0.0974159 -0.141608 1.41407)
(-0.125602 -0.125602 1.3917)
(-0.142195 -0.105305 1.33638)
(0.119433 -0.119433 1.27601)
(0.105305 -0.142195 1.33638)
(0.0822748 -0.160323 1.37029)
(0.0523248 -0.17285 1.3878)
(0.017935 -0.179205 1.39498)
(-0.0179349 -0.179205 1.39498)
(-0.0523247 -0.172849 1.3878)
(-0.0822748 -0.160323 1.37029)
(-0.105305 -0.142195 1.33638)
(-0.119433 -0.119433 1.27601)
(0.0691679 0.0691679 1.1775)
(0.0663285 0.0860612 1.28498)
(0.0542916 0.100121 1.35876)
(0.0355724 0.110451 1.40443)
(0.0123761 0.115907 1.42606)
(-0.012376 0.115907 1.42606)
(-0.0355723 0.110451 1.40443)
(-0.0542915 0.100121 1.35876)
(-0.0663285 0.0860612 1.28498)
(-0.0691678 0.0691679 1.1775)
(0.0860612 0.0663285 1.28498)
(0.0829903 0.0829903 1.40363)
(0.0680489 0.0969393 1.47467)
(0.0444957 0.107019 1.51405)
(0.0154501 0.112284 1.5314)
(-0.01545 0.112284 1.5314)
(-0.0444956 0.107019 1.51405)
(-0.0680488 0.0969393 1.47467)
(-0.0829902 0.0829903 1.40363)
(-0.0860612 0.0663285 1.28498)
(0.100121 0.0542916 1.35876)
(0.0969393 0.0680489 1.47467)
(0.0795511 0.0795511 1.53953)
(0.0519014 0.0877176 1.57249)
(0.0179916 0.091941 1.58593)
(-0.0179915 0.091941 1.58593)
(-0.0519013 0.0877176 1.57249)
(-0.079551 0.0795511 1.53953)
(-0.0969392 0.0680489 1.47467)
(-0.100121 0.0542916 1.35876)
(0.110451 0.0355724 1.40443)
(0.107019 0.0444957 1.51405)
(0.0877177 0.0519014 1.57249)
(0.0571039 0.0571039 1.60012)
(0.0197697 0.0597794 1.61056)
(-0.0197695 0.0597794 1.61056)
(-0.0571038 0.0571039 1.60012)
(-0.0877176 0.0519014 1.57249)
(-0.107019 0.0444957 1.51405)
(-0.110451 0.0355724 1.40443)
(0.115907 0.0123761 1.42606)
(0.112284 0.0154501 1.5314)
(0.091941 0.0179916 1.58593)
(0.0597794 0.0197696 1.61056)
(0.0206819 0.0206819 1.61936)
(-0.0206818 0.0206819 1.61936)
(-0.0597793 0.0197696 1.61056)
(-0.0919409 0.0179916 1.58593)
(-0.112284 0.0154501 1.5314)
(-0.115907 0.0123761 1.42606)
(0.115907 -0.012376 1.42606)
(0.112284 -0.01545 1.5314)
(0.091941 -0.0179916 1.58593)
(0.0597794 -0.0197695 1.61056)
(0.0206819 -0.0206818 1.61936)
(-0.0206818 -0.0206818 1.61936)
(-0.0597793 -0.0197695 1.61056)
(-0.0919409 -0.0179916 1.58593)
(-0.112284 -0.01545 1.5314)
(-0.115907 -0.012376 1.42606)
(0.110451 -0.0355723 1.40443)
(0.107019 -0.0444957 1.51405)
(0.0877177 -0.0519013 1.57249)
(0.0571039 -0.0571038 1.60012)
(0.0197697 -0.0597793 1.61056)
(-0.0197695 -0.0597793 1.61056)
(-0.0571038 -0.0571038 1.60012)
(-0.0877175 -0.0519013 1.57249)
(-0.107019 -0.0444957 1.51405)
(-0.110451 -0.0355723 1.40443)
(0.100121 -0.0542915 1.35876)
(0.0969393 -0.0680489 1.47467)
(0.0795511 -0.079551 1.53953)
(0.0519014 -0.0877176 1.57249)
(0.0179917 -0.0919409 1.58593)
(-0.0179915 -0.0919409 1.58593)
(-0.0519013 -0.0877176 1.57249)
(-0.079551 -0.079551 1.53953)
(-0.0969392 -0.0680488 1.47467)
(-0.100121 -0.0542915 1.35876)
(0.0860612 -0.0663285 1.28498)
(0.0829903 -0.0829902 1.40363)
(0.0680489 -0.0969392 1.47467)
(0.0444957 -0.107019 1.51405)
(0.0154501 -0.112284 1.5314)
(-0.01545 -0.112284 1.5314)
(-0.0444956 -0.107019 1.51405)
(-0.0680488 -0.0969392 1.47467)
(-0.0829902 -0.0829902 1.40363)
(-0.0860612 -0.0663285 1.28498)
(0.0691679 -0.0691678 1.1775)
(0.0663286 -0.0860612 1.28498)
(0.0542916 -0.100121 1.35876)
(0.0355724 -0.110451 1.40443)
(0.0123761 -0.115907 1.42606)
(-0.012376 -0.115907 1.42606)
(-0.0355723 -0.110451 1.40443)
(-0.0542915 -0.100121 1.35876)
(-0.0663285 -0.0860612 1.28498)
(-0.0691678 -0.0691678 1.1775)
(0.0332516 0.0332516 1.16091)
(0.0331316 0.0433268 1.28641)
(0.0280844 0.0523171 1.37799)
(0.0188542 0.0591908 1.43758)
(0.00663989 0.0629072 1.46676)
(-0.00663976 0.0629072 1.46676)
(-0.0188541 0.0591908 1.43758)
(-0.0280843 0.0523171 1.37799)
(-0.0331315 0.0433268 1.28641)
(-0.0332516 0.0332517 1.16091)
(0.0433268 0.0331316 1.28641)
(0.0439779 0.0439779 1.43448)
(0.0376123 0.0536892 1.53212)
(0.0252892 0.0610168 1.5912)
(0.00890245 0.0649472 1.61892)
(-0.00890229 0.0649472 1.61892)
(-0.0252891 0.0610168 1.5912)
(-0.0376122 0.0536892 1.53212)
(-0.0439778 0.0439779 1.43448)
(-0.0433267 0.0331317 1.28641)
(0.0523171 0.0280844 1.37799)
(0.0536892 0.0376123 1.53212)
(0.0461138 0.0461138 1.63022)
(0.0310002 0.0524369 1.68711)
(0.0109061 0.0558027 1.71295)
(-0.0109059 0.0558027 1.71295)
(-0.031 0.052437 1.68711)
(-0.0461137 0.0461139 1.63022)
(-0.0536891 0.0376123 1.53212)
(-0.052317 0.0280845 1.37799)
(0.0591908 0.0188542 1.43758)
(0.0610168 0.0252892 1.5912)
(0.052437 0.0310002 1.68711)
(0.0352136 0.0352136 1.74128)
(0.0123799 0.0374467 1.76533)
(-0.0123797 0.0374467 1.76533)
(-0.0352135 0.0352136 1.74128)
(-0.0524368 0.0310002 1.68711)
(-0.0610167 0.0252892 1.5912)
(-0.0591907 0.0188542 1.43758)
(0.0629072 0.00663988 1.46676)
(0.0649472 0.00890243 1.61892)
(0.0558027 0.0109061 1.71295)
(0.0374467 0.0123799 1.76533)
(0.0131596 0.0131596 1.78829)
(-0.0131594 0.0131596 1.78829)
(-0.0374465 0.0123799 1.76533)
(-0.0558025 0.0109061 1.71295)
(-0.0649471 0.00890244 1.61892)
(-0.0629071 0.00663989 1.46676)
(0.0629072 -0.00663978 1.46676)
(0.0649472 -0.00890232 1.61892)
(0.0558027 -0.0109059 1.71295)
(0.0374467 -0.0123797 1.76533)
(0.0131596 -0.0131594 1.78829)
(-0.0131594 -0.0131594 1.78829)
(-0.0374465 -0.0123797 1.76533)
(-0.0558025 -0.0109059 1.71295)
(-0.0649471 -0.00890231 1.61892)
(-0.0629071 -0.00663978 1.46676)
(0.0591908 -0.0188541 1.43758)
(0.0610168 -0.0252891 1.5912)
(0.052437 -0.031 1.68711)
(0.0352137 -0.0352135 1.74128)
(0.0123799 -0.0374465 1.76533)
(-0.0123797 -0.0374465 1.76533)
(-0.0352135 -0.0352135 1.74128)
(-0.0524368 -0.031 1.68711)
(-0.0610167 -0.0252891 1.5912)
(-0.0591907 -0.0188541 1.43758)
(0.0523171 -0.0280844 1.37799)
(0.0536892 -0.0376122 1.53212)
(0.0461139 -0.0461137 1.63022)
(0.0310002 -0.0524368 1.68711)
(0.0109061 -0.0558026 1.71295)
(-0.0109059 -0.0558026 1.71295)
(-0.031 -0.0524368 1.68711)
(-0.0461137 -0.0461137 1.63022)
(-0.0536891 -0.0376122 1.53212)
(-0.052317 -0.0280844 1.37799)
(0.0433268 -0.0331316 1.28641)
(0.0439779 -0.0439778 1.43448)
(0.0376124 -0.0536891 1.53212)
(0.0252893 -0.0610167 1.5912)
(0.00890246 -0.0649471 1.61892)
(-0.00890228 -0.0649471 1.61892)
(-0.0252891 -0.0610167 1.5912)
(-0.0376122 -0.0536891 1.53212)
(-0.0439778 -0.0439778 1.43448)
(-0.0433267 -0.0331316 1.28641)
(0.0332517 -0.0332516 1.16091)
(0.0331317 -0.0433267 1.28641)
(0.0280845 -0.052317 1.37799)
(0.0188542 -0.0591907 1.43758)
(0.00663991 -0.0629071 1.46676)
(-0.00663975 -0.0629071 1.46676)
(-0.0188541 -0.0591907 1.43758)
(-0.0280843 -0.052317 1.37799)
(-0.0331316 -0.0433267 1.28641)
(-0.0332516 -0.0332516 1.16091)
(0.0175935 0.0175935 1.1293)
(0.0181396 0.0231495 1.26458)
(0.0156938 0.0282381 1.36677)
(0.0106826 0.0322346 1.43514)
(0.00378909 0.0344325 1.46924)
(-0.00378886 0.0344325 1.46924)
(-0.0106824 0.0322346 1.43514)
(-0.0156936 0.0282381 1.36677)
(-0.0181394 0.0231495 1.26458)
(-0.0175934 0.0175935 1.1293)
(0.0231495 0.0181396 1.26458)
(0.0243796 0.0243796 1.42938)
(0.0213915 0.0301744 1.54374)
(0.0146364 0.0346863 1.61603)
(0.0051984 0.0371535 1.651)
(-0.00519814 0.0371535 1.651)
(-0.0146362 0.0346863 1.61603)
(-0.0213913 0.0301744 1.54374)
(-0.0243794 0.0243796 1.42938)
(-0.0231494 0.0181396 1.26458)
(0.0282381 0.0156937 1.36677)
(0.0301744 0.0213915 1.54374)
(0.0266958 0.0266958 1.66384)
(0.0183099 0.0307758 1.73774)
(0.0065071 0.0329927 1.77278)
(-0.00650682 0.0329927 1.77278)
(-0.0183096 0.0307758 1.73774)
(-0.0266955 0.0266958 1.66384)
(-0.0301742 0.0213915 1.54374)
(-0.0282379 0.0156938 1.36677)
(0.0322346 0.0106826 1.43514)
(0.0346863 0.0146364 1.61603)
(0.0307758 0.0183099 1.73774)
(0.0211173 0.0211172 1.81159)
(0.00750506 0.0226373 1.84619)
(-0.00750476 0.0226373 1.84619)
(-0.021117 0.0211172 1.81159)
(-0.0307756 0.0183099 1.73774)
(-0.0346861 0.0146365 1.61603)
(-0.0322344 0.0106826 1.43514)
(0.0344325 0.00378906 1.46924)
(0.0371535 0.00519837 1.651)
(0.0329927 0.00650707 1.77278)
(0.0226373 0.00750503 1.84619)
(0.00804467 0.00804464 1.8804)
(-0.00804435 0.00804465 1.8804)
(-0.022637 0.00750505 1.84619)
(-0.0329925 0.00650709 1.77278)
(-0.0371533 0.0051984 1.651)
(-0.0344323 0.0037891 1.46924)
(0.0344325 -0.0037889 1.46924)
(0.0371535 -0.00519818 1.651)
(0.0329927 -0.00650686 1.77278)
(0.0226373 -0.0075048 1.84619)
(0.00804468 -0.00804439 1.8804)
(-0.00804435 -0.00804439 1.8804)
(-0.022637 -0.00750479 1.84619)
(-0.0329925 -0.00650684 1.77278)
(-0.0371533 -0.00519816 1.651)
(-0.0344323 -0.00378888 1.46924)
(0.0322346 -0.0106824 1.43514)
(0.0346863 -0.0146362 1.61603)
(0.0307758 -0.0183097 1.73774)
(0.0211173 -0.021117 1.81159)
(0.00750508 -0.0226371 1.84619)
(-0.00750475 -0.0226371 1.84619)
(-0.021117 -0.021117 1.81159)
(-0.0307756 -0.0183097 1.73774)
(-0.0346861 -0.0146362 1.61603)
(-0.0322345 -0.0106824 1.43514)
(0.0282381 -0.0156936 1.36677)
(0.0301744 -0.0213913 1.54374)
(0.0266958 -0.0266956 1.66384)
(0.0183099 -0.0307756 1.73774)
(0.00650712 -0.0329925 1.77278)
(-0.00650681 -0.0329925 1.77278)
(-0.0183096 -0.0307756 1.73774)
(-0.0266955 -0.0266956 1.66384)
(-0.0301742 -0.0213913 1.54374)
(-0.0282379 -0.0156936 1.36677)
(0.0231495 -0.0181394 1.26458)
(0.0243796 -0.0243795 1.42938)
(0.0213915 -0.0301742 1.54374)
(0.0146365 -0.0346861 1.61603)
(0.00519843 -0.0371533 1.651)
(-0.00519813 -0.0371533 1.651)
(-0.0146362 -0.0346861 1.61603)
(-0.0213913 -0.0301743 1.54374)
(-0.0243794 -0.0243795 1.42938)
(-0.0231494 -0.0181395 1.26458)
(0.0175935 -0.0175934 1.1293)
(0.0181396 -0.0231494 1.26458)
(0.0156938 -0.0282379 1.36677)
(0.0106826 -0.0322345 1.43514)
(0.00378912 -0.0344324 1.46924)
(-0.00378885 -0.0344324 1.46924)
(-0.0106824 -0.0322345 1.43514)
(-0.0156936 -0.028238 1.36677)
(-0.0181394 -0.0231494 1.26458)
(-0.0175934 -0.0175934 1.1293)
(0.00911968 0.00911966 1.11711)
(0.00954258 0.0121595 1.25663)
(0.00838311 0.0150161 1.36387)
(0.0057708 0.0172965 1.43664)
(0.00205894 0.0185633 1.4733)
(-0.00205861 0.0185633 1.4733)
(-0.00577048 0.0172965 1.43664)
(-0.00838282 0.0150161 1.36387)
(-0.00954233 0.0121596 1.25663)
(-0.00911949 0.00911973 1.11711)
(0.0121595 0.00954255 1.25663)
(0.0130697 0.0130697 1.42944)
(0.0116855 0.0164393 1.5525)
(0.00810293 0.019116 1.63208)
(0.00289784 0.0205983 1.67117)
(-0.00289745 0.0205983 1.67117)
(-0.00810257 0.019116 1.63208)
(-0.0116852 0.0164393 1.5525)
(-0.0130694 0.0130697 1.42944)
(-0.0121593 0.00954264 1.25663)
(0.0150161 0.00838308 1.36387)
(0.0164393 0.0116855 1.5525)
(0.0148558 0.0148558 1.6848)
(0.0103427 0.0173519 1.76869)
(0.00370415 0.018728 1.80931)
(-0.00370373 0.018728 1.80931)
(-0.0103423 0.0173519 1.76869)
(-0.0148554 0.0148558 1.6848)
(-0.016439 0.0116856 1.5525)
(-0.0150158 0.00838318 1.36387)
(0.0172965 0.00577076 1.43664)
(0.019116 0.00810289 1.63208)
(0.0173519 0.0103427 1.76869)
(0.0120986 0.0120986 1.85458)
(0.00433548 0.0130644 1.89588)
(-0.00433502 0.0130644 1.89588)
(-0.0120982 0.0120986 1.85458)
(-0.0173515 0.0103428 1.76869)
(-0.0191157 0.00810297 1.63208)
(-0.0172962 0.00577084 1.43664)
(0.0185633 0.00205889 1.4733)
(0.0205983 0.00289779 1.67117)
(0.018728 0.0037041 1.80931)
(0.0130644 0.00433543 1.89588)
(0.00468244 0.0046824 1.93736)
(-0.00468196 0.00468241 1.93736)
(-0.0130639 0.00433547 1.89588)
(-0.0187276 0.00370415 1.80931)
(-0.0205979 0.00289785 1.67117)
(-0.018563 0.00205896 1.4733)
(0.0185633 -0.00205866 1.4733)
(0.0205983 -0.00289751 1.67117)
(0.018728 -0.00370378 1.80931)
(0.0130644 -0.00433508 1.89588)
(0.00468245 -0.00468201 1.93736)
(-0.00468195 -0.004682 1.93736)
(-0.0130639 -0.00433505 1.89588)
(-0.0187276 -0.00370375 1.80931)
(-0.0205979 -0.00289747 1.67117)
(-0.018563 -0.00205861 1.4733)
(0.0172965 -0.00577054 1.43664)
(0.019116 -0.00810263 1.63208)
(0.0173519 -0.0103424 1.76869)
(0.0120986 -0.0120982 1.85458)
(0.00433551 -0.013064 1.89588)
(-0.004335 -0.013064 1.89588)
(-0.0120982 -0.0120982 1.85458)
(-0.0173515 -0.0103424 1.76869)
(-0.0191157 -0.00810261 1.63208)
(-0.0172962 -0.00577052 1.43664)
(0.0150161 -0.00838289 1.36387)
(0.0164393 -0.0116853 1.5525)
(0.0148559 -0.0148555 1.6848)
(0.0103428 -0.0173516 1.76869)
(0.00370419 -0.0187277 1.80931)
(-0.0037037 -0.0187277 1.80931)
(-0.0103423 -0.0173516 1.76869)
(-0.0148555 -0.0148555 1.6848)
(-0.016439 -0.0116853 1.5525)
(-0.0150159 -0.00838288 1.36387)
(0.0121596 -0.00954239 1.25663)
(0.0130697 -0.0130695 1.42944)
(0.0116856 -0.016439 1.5525)
(0.00810299 -0.0191157 1.63208)
(0.00289789 -0.020598 1.67117)
(-0.00289742 -0.020598 1.67117)
(-0.00810256 -0.0191158 1.63208)
(-0.0116852 -0.0164391 1.5525)
(-0.0130694 -0.0130695 1.42944)
(-0.0121593 -0.00954241 1.25663)
(0.00911973 -0.00911953 1.11711)
(0.00954264 -0.0121593 1.25663)
(0.00838318 -0.0150159 1.36387)
(0.00577086 -0.0172963 1.43664)
(0.00205899 -0.0185631 1.4733)
(-0.00205857 -0.0185631 1.4733)
(-0.00577047 -0.0172963 1.43664)
(-0.00838284 -0.0150159 1.36387)
(-0.00954236 -0.0121594 1.25663)
(-0.00911952 -0.00911956 1.11711)
(0.00503609 0.00503606 1.10828)
(0.00532453 0.00671645 1.25012)
(0.00471008 0.00830899 1.3602)
(0.0032591 0.00959276 1.43552)
(0.00116615 0.0103105 1.47367)
(-0.00116573 0.0103106 1.47367)
(-0.00325869 0.00959282 1.43552)
(-0.0047097 0.00830908 1.3602)
(-0.0053242 0.00671655 1.25012)
(-0.00503583 0.00503617 1.10828)
(0.00671648 0.00532448 1.25012)
(0.00730158 0.00730153 1.42731)
(0.00658846 0.00921725 1.55531)
(0.00460045 0.0107589 1.63915)
(0.00165152 0.0116197 1.68069)
(-0.00165102 0.0116198 1.68069)
(-0.00459997 0.010759 1.63915)
(-0.00658803 0.00921736 1.55531)
(-0.00730121 0.00730166 1.42731)
(-0.00671618 0.00532462 1.25012)
(0.00830902 0.00471002 1.3602)
(0.0092173 0.0065884 1.55531)
(0.00842459 0.00842454 1.69468)
(0.00591548 0.00989255 1.78453)
(0.00212832 0.0107099 1.82856)
(-0.00212776 0.0107099 1.82856)
(-0.00591493 0.00989262 1.78453)
(-0.0084241 0.00842464 1.69468)
(-0.00921689 0.00658854 1.55531)
(-0.00830869 0.00471018 1.36021)
(0.00959279 0.00325903 1.43552)
(0.0107589 0.00460038 1.63915)
(0.0098926 0.00591541 1.78453)
(0.0069641 0.00696404 1.87776)
(0.0025084 0.00754713 1.92322)
(-0.00250778 0.00754715 1.92322)
(-0.00696351 0.00696411 1.87776)
(-0.00989207 0.00591551 1.78453)
(-0.0107585 0.00460051 1.63915)
(-0.00959244 0.00325918 1.43552)
(0.0103106 0.00116607 1.47367)
(0.0116198 0.00165144 1.68069)
(0.0107099 0.00212825 1.82856)
(0.00754718 0.00250833 1.92322)
(0.00271967 0.00271961 1.96928)
(-0.00271901 0.00271963 1.96928)
(-0.00754655 0.0025084 1.92322)
(-0.0107094 0.00212835 1.82856)
(-0.0116193 0.00165156 1.68069)
(-0.0103102 0.0011662 1.47367)
(0.0103106 -0.00116581 1.47367)
(0.0116198 -0.0016511 1.68069)
(0.0107099 -0.00212784 1.82856)
(0.0075472 -0.00250786 1.92322)
(0.00271969 -0.00271908 1.96928)
(-0.00271899 -0.00271906 1.96928)
(-0.00754655 -0.0025078 1.92322)
(-0.0107094 -0.00212776 1.82856)
(-0.0116193 -0.00165101 1.68069)
(-0.0103102 -0.00116571 1.47367)
(0.00959283 -0.00325878 1.43552)
(0.010759 -0.00460006 1.63915)
(0.00989265 -0.00591501 1.78453)
(0.00696416 -0.00696358 1.87776)
(0.00250845 -0.00754662 1.92322)
(-0.00250774 -0.00754661 1.92322)
(-0.0069635 -0.00696356 1.87776)
(-0.00989208 -0.00591497 1.78453)
(-0.0107585 -0.0046 1.63915)
(-0.00959248 -0.00325872 1.43552)
(0.00830907 -0.00470979 1.3602)
(0.00921737 -0.00658811 1.55531)
(0.00842467 -0.00842418 1.69468)
(0.00591556 -0.00989214 1.78453)
(0.0021284 -0.0107094 1.82856)
(-0.0021277 -0.0107094 1.82856)
(-0.00591492 -0.00989214 1.78453)
(-0.00842412 -0.00842417 1.69468)
(-0.00921692 -0.0065881 1.55531)
(-0.00830874 -0.00470977 1.36021)
(0.00671654 -0.00532428 1.25012)
(0.00730167 -0.00730128 1.42731)
(0.00658857 -0.00921695 1.55531)
(0.00460055 -0.0107586 1.63915)
(0.00165161 -0.0116194 1.68069)
(-0.00165096 -0.0116194 1.68069)
(-0.00459995 -0.0107586 1.63915)
(-0.00658804 -0.00921698 1.55531)
(-0.00730125 -0.0073013 1.42731)
(-0.00671624 -0.00532429 1.25012)
(0.00503616 -0.00503589 1.10828)
(0.00532462 -0.00671624 1.25012)
(0.00471019 -0.00830875 1.3602)
(0.00325921 -0.0095925 1.43552)
(0.00116624 -0.0103103 1.47367)
(-0.00116566 -0.0103103 1.47367)
(-0.00325867 -0.00959253 1.43552)
(-0.00470971 -0.00830879 1.36021)
(-0.00532424 -0.00671629 1.25012)
(-0.00503588 -0.00503593 1.10828)
(0.00279388 0.00279382 1.10387)
(0.00296542 0.003737 1.24689)
(0.0026359 0.0046374 1.35849)
(0.00183091 0.00536694 1.43519)
(0.000656564 0.00577622 1.47415)
(-0.000656074 0.00577625 1.47415)
(-0.00183043 0.00536702 1.43519)
(-0.00263545 0.00463752 1.35849)
(-0.00296503 0.00373714 1.24689)
(-0.00279356 0.00279398 1.10387)
(0.00373706 0.00296534 1.24689)
(0.00408557 0.00408548 1.4264)
(0.00370911 0.00518078 1.5571)
(0.00260229 0.00606857 1.64331)
(0.000936707 0.0065667 1.68624)
(-0.000936111 0.00656673 1.68624)
(-0.00260171 0.00606867 1.64331)
(-0.00370859 0.00518093 1.5571)
(-0.00408512 0.00408567 1.4264)
(-0.00373668 0.00296555 1.24689)
(0.00463747 0.0026358 1.35849)
(0.00518086 0.00370901 1.5571)
(0.00476974 0.00476964 1.70041)
(0.00336811 0.00562548 1.79367)
(0.00121563 0.00610488 1.83967)
(-0.00121494 0.00610492 1.83967)
(-0.00336743 0.00562558 1.79367)
(-0.00476913 0.0047698 1.70041)
(-0.00518036 0.00370922 1.5571)
(-0.00463707 0.00263605 1.35849)
(0.005367 0.0018308 1.43519)
(0.00606865 0.00260217 1.64331)
(0.00562557 0.003368 1.79367)
(0.00398533 0.00398523 1.89117)
(0.00144052 0.00433085 1.93908)
(-0.00143975 0.00433089 1.93908)
(-0.00398459 0.00398534 1.89117)
(-0.0056249 0.00336816 1.79367)
(-0.0060681 0.00260238 1.64331)
(-0.00536657 0.00183103 1.43519)
(0.00577627 0.000656445 1.47415)
(0.00656677 0.000936587 1.68624)
(0.00610497 0.00121552 1.83967)
(0.00433095 0.00144042 1.93908)
(0.00156647 0.00156638 1.98787)
(-0.00156562 0.00156642 1.98787)
(-0.00433014 0.00144053 1.93908)
(-0.00610426 0.00121568 1.83967)
(-0.0065662 0.000936783 1.68624)
(-0.00577583 0.000656663 1.47416)
(0.00577629 -0.000656196 1.47415)
(0.00656679 -0.000936232 1.68624)
(0.00610499 -0.00121505 1.83967)
(0.00433098 -0.00143985 1.93908)
(0.0015665 -0.00156571 1.98787)
(-0.0015656 -0.00156568 1.98787)
(-0.00433013 -0.00143976 1.93908)
(-0.00610427 -0.00121492 1.83967)
(-0.00656621 -0.000936072 1.68624)
(-0.00577585 -0.000656018 1.47416)
(0.00536705 -0.00183055 1.43519)
(0.00606872 -0.00260182 1.64331)
(0.00562565 -0.00336754 1.79367)
(0.00398542 -0.00398468 1.89117)
(0.00144061 -0.00433023 1.93908)
(-0.00143968 -0.00433021 1.93908)
(-0.00398456 -0.00398463 1.89117)
(-0.00562492 -0.00336746 1.79367)
(-0.00606814 -0.00260172 1.64331)
(-0.00536662 -0.00183043 1.43519)
(0.00463754 -0.00263557 1.35849)
(0.00518097 -0.00370869 1.5571)
(0.00476986 -0.00476923 1.70041)
(0.00336824 -0.00562499 1.79367)
(0.00121576 -0.00610434 1.83967)
(-0.00121485 -0.00610433 1.83967)
(-0.00336739 -0.00562498 1.79367)
(-0.00476915 -0.00476921 1.70041)
(-0.00518041 -0.00370865 1.5571)
(-0.00463713 -0.00263551 1.35849)
(0.00373714 -0.00296513 1.24689)
(0.0040857 -0.00408521 1.4264)
(0.00370927 -0.00518044 1.5571)
(0.00260245 -0.00606817 1.64331)
(0.000936856 -0.00656626 1.68624)
(-0.000936 -0.00656627 1.68624)
(-0.00260165 -0.00606819 1.64331)
(-0.00370859 -0.00518046 1.5571)
(-0.00408516 -0.00408522 1.4264)
(-0.00373677 -0.00296513 1.24689)
(0.00279398 -0.00279363 1.10387)
(0.00296557 -0.00373675 1.24689)
(0.00263608 -0.00463712 1.35849)
(0.00183108 -0.00536662 1.43519)
(0.000656723 -0.00577588 1.47416)
(-0.000655956 -0.00577589 1.47416)
(-0.00183037 -0.00536666 1.43519)
(-0.00263546 -0.00463718 1.35849)
(-0.00296508 -0.00373681 1.24689)
(-0.00279363 -0.00279368 1.10387)
(0.00159516 0.00159507 1.10117)
(0.00169678 0.00213225 1.24487)
(0.00151065 0.00264591 1.35733)
(0.00105076 0.00306316 1.43482)
(0.00037719 0.00329768 1.47427)
(-0.00037664 0.00329771 1.47427)
(-0.00105022 0.00306327 1.43483)
(-0.00151014 0.00264609 1.35733)
(-0.00169634 0.00213245 1.24487)
(-0.00159479 0.00159529 1.10117)
(0.00213235 0.00169666 1.24487)
(0.00233663 0.00233651 1.42569)
(0.00212622 0.00296455 1.55793)
(0.0014948 0.00347565 1.64552)
(0.000538801 0.00376321 1.68925)
(-0.000538122 0.00376325 1.68925)
(-0.00149414 0.00347578 1.64552)
(-0.00212563 0.00296477 1.55793)
(-0.00233612 0.00233677 1.42569)
(-0.00213191 0.00169696 1.24487)
(0.00264603 0.00151052 1.35733)
(0.00296468 0.00212607 1.55793)
(0.002738 0.00273785 1.70351)
(0.00193868 0.00323411 1.79875)
(0.000700922 0.0035131 1.84591)
(-0.000700114 0.00351315 1.84591)
(-0.00193789 0.00323426 1.79876)
(-0.0027373 0.00273809 1.70351)
(-0.0029641 0.00212638 1.55793)
(-0.00264556 0.00151086 1.35733)
(0.00306328 0.00105061 1.43482)
(0.00347578 0.00149464 1.64552)
(0.00323426 0.00193851 1.79875)
(0.00229867 0.00229852 1.89874)
(0.00083253 0.00250097 1.9481)
(-0.000831608 0.00250103 1.9481)
(-0.00229778 0.00229868 1.89874)
(-0.00323347 0.00193876 1.79876)
(-0.00347514 0.00149494 1.64552)
(-0.00306278 0.00105095 1.43483)
(0.00329778 0.000377027 1.47427)
(0.00376333 0.000538633 1.68925)
(0.00351324 0.000700761 1.84591)
(0.00250112 0.00083238 1.9481)
(0.00090659 0.000906451 1.99851)
(-0.000905559 0.00090651 1.99851)
(-0.00250014 0.000832545 1.9481)
(-0.0035124 0.000701001 1.84591)
(-0.00376265 0.000538923 1.68925)
(-0.00329727 0.000377343 1.47427)
(0.0032978 -0.000376801 1.47427)
(0.00376336 -0.000538282 1.68925)
(0.00351328 -0.000700266 1.84591)
(0.00250116 -0.000831745 1.9481)
(0.000906638 -0.000905683 1.99851)
(-0.000905521 -0.000905634 1.99851)
(-0.00250012 -0.000831609 1.9481)
(-0.0035124 -0.000700068 1.84591)
(-0.00376267 -0.000538041 1.68925)
(-0.00329729 -0.000376539 1.47427)
(0.00306334 -0.00105037 1.43482)
(0.00347587 -0.00149429 1.64552)
(0.00323437 -0.00193802 1.79876)
(0.0022988 -0.0022979 1.89874)
(0.000832662 -0.00250024 1.9481)
(-0.000831505 -0.00250022 1.9481)
(-0.00229774 -0.00229782 1.89874)
(-0.00323349 -0.00193791 1.79876)
(-0.00347518 -0.00149413 1.64552)
(-0.00306284 -0.0010502 1.43483)
(0.00264612 -0.00151029 1.35733)
(0.00296484 -0.00212575 1.55793)
(0.00273818 -0.00273741 1.70351)
(0.00193887 -0.00323357 1.79876)
(0.000701109 -0.00351248 1.84591)
(-0.000699972 -0.00351247 1.84591)
(-0.00193783 -0.00323355 1.79876)
(-0.00273731 -0.00273737 1.70352)
(-0.00296416 -0.00212568 1.55794)
(-0.00264565 -0.0015102 1.35733)
(0.00213247 -0.00169646 1.24487)
(0.00233682 -0.00233622 1.42569)
(0.00212646 -0.00296418 1.55793)
(0.00149504 -0.0034752 1.64552)
(0.000539018 -0.0037627 1.68925)
(-0.000537956 -0.00376272 1.68925)
(-0.00149406 -0.00347523 1.64552)
(-0.00212562 -0.00296421 1.55794)
(-0.00233617 -0.00233622 1.42569)
(-0.00213203 -0.00169646 1.24487)
(0.00159531 -0.00159488 1.10117)
(0.001697 -0.00213199 1.24487)
(0.00151091 -0.00264562 1.35733)
(0.00105102 -0.00306282 1.43483)
(0.000377417 -0.00329729 1.47427)
(-0.000376471 -0.00329731 1.47427)
(-0.00105013 -0.00306287 1.43483)
(-0.00151014 -0.00264568 1.35733)
(-0.00169641 -0.00213206 1.24487)
(-0.0015949 -0.00159494 1.10117)
(0.000915369 0.000915256 1.09968)
(0.000974037 0.00122427 1.24375)
(0.000868057 0.00152022 1.3567)
(0.00060437 0.00176089 1.43465)
(0.000217156 0.00189628 1.47437)
(-0.000216542 0.00189633 1.47437)
(-0.000603765 0.00176104 1.43465)
(-0.000867486 0.00152045 1.3567)
(-0.000973549 0.00122454 1.24376)
(-0.00091495 0.000915537 1.09968)
(0.00122441 0.000973897 1.24375)
(0.00134277 0.0013426 1.42531)
(0.00122348 0.00170531 1.55844)
(0.000861236 0.00200107 1.6468)
(0.000310768 0.00216771 1.691)
(-0.000310003 0.00216777 1.691)
(-0.000860492 0.00200125 1.6468)
(-0.00122282 0.0017056 1.55844)
(-0.0013422 0.00134295 1.42531)
(-0.00122391 0.000974282 1.24376)
(0.00152038 0.000867889 1.3567)
(0.0017055 0.00122329 1.55844)
(0.00157781 0.00157761 1.70531)
(0.00111898 0.00186584 1.8017)
(0.00040507 0.00202821 1.84952)
(-0.000404146 0.00202828 1.84952)
(-0.00111808 0.00186603 1.8017)
(-0.00157701 0.00157792 1.70531)
(-0.00170484 0.0012237 1.55844)
(-0.00151986 0.00086833 1.35671)
(0.00176106 0.000604181 1.43465)