/*--------------------------------*- C++ -*----------------------------------*\
| =========                 |                                                 |
| \\      /  F ield         | OpenFOAM: The Open Source CFD Toolbox           |
|  \\    /   O peration     | Version:  2412                                  |
|   \\  /    A nd           | Website:  www.openfoam.com                      |
|    \\/     M anipulation  |                                                 |
\*---------------------------------------------------------------------------*/
FoamFile
{
    version     2.0;
    format      ascii;
    arch        "LSB;label=32;scalar=64";
    class       volVectorField;
    location    "6.2";
    object      U;
}
// * * * * * * * * * * * * * * * * * * * * * * * * * * * * * * * * * * * * * //

dimensions      [0 1 -1 0 0 0 0];

internalField   nonuniform List<vector> 
15000
(
(0.00122247 0.00122247 0.0104217)
(0.000905403 0.00114776 0.0103856)
(0.00061828 0.00112293 0.0103523)
(0.00036333 0.00109752 0.0103288)
(0.000119387 0.00108568 0.0103173)
(-0.000119387 0.00108568 0.0103173)
(-0.00036333 0.00109752 0.0103288)
(-0.00061828 0.00112293 0.0103523)
(-0.000905403 0.00114776 0.0103856)
(-0.00122247 0.00122247 0.0104217)
(0.00114776 0.000905403 0.0103856)
(0.000855935 0.000855935 0.0103329)
(0.000586285 0.000819308 0.0102941)
(0.000341915 0.000792704 0.0102702)
(0.000112158 0.000779613 0.0102589)
(-0.000112158 0.000779613 0.0102589)
(-0.000341915 0.000792704 0.0102702)
(-0.000586285 0.000819308 0.0102941)
(-0.000855935 0.000855935 0.0103329)
(-0.00114776 0.000905403 0.0103856)
(0.00112293 0.00061828 0.0103523)
(0.000819308 0.000586285 0.0102941)
(0.000556274 0.000556274 0.0102561)
(0.000322229 0.000534101 0.0102334)
(0.00010541 0.000522833 0.0102226)
(-0.00010541 0.000522833 0.0102226)
(-0.000322229 0.000534101 0.0102334)
(-0.000556274 0.000556274 0.0102561)
(-0.000819308 0.000586285 0.0102941)
(-0.00112293 0.00061828 0.0103523)
(0.00109752 0.00036333 0.0103288)
(0.000792704 0.000341915 0.0102702)
(0.000534101 0.000322229 0.0102334)
(0.00030771 0.00030771 0.0102112)
(0.000100416 0.00030027 0.0102005)
(-0.000100416 0.00030027 0.0102005)
(-0.00030771 0.00030771 0.0102112)
(-0.000534101 0.000322229 0.0102334)
(-0.000792704 0.000341915 0.0102702)
(-0.00109752 0.00036333 0.0103288)
(0.00108568 0.000119387 0.0103173)
(0.000779613 0.000112158 0.0102589)
(0.000522833 0.00010541 0.0102226)
(0.00030027 0.000100416 0.0102005)
(9.78506e-05 9.78506e-05 0.0101897)
(-9.78506e-05 9.78506e-05 0.0101897)
(-0.00030027 0.000100416 0.0102005)
(-0.000522833 0.00010541 0.0102226)
(-0.000779613 0.000112158 0.0102589)
(-0.00108568 0.000119387 0.0103173)
(0.00108568 -0.000119387 0.0103173)
(0.000779613 -0.000112158 0.0102589)
(0.000522833 -0.00010541 0.0102226)
(0.00030027 -0.000100416 0.0102005)
(9.78506e-05 -9.78506e-05 0.0101897)
(-9.78506e-05 -9.78506e-05 0.0101897)
(-0.00030027 -0.000100416 0.0102005)
(-0.000522833 -0.00010541 0.0102226)
(-0.000779613 -0.000112158 0.0102589)
(-0.00108568 -0.000119387 0.0103173)
(0.00109752 -0.00036333 0.0103288)
(0.000792704 -0.000341915 0.0102702)
(0.000534101 -0.000322229 0.0102334)
(0.00030771 -0.00030771 0.0102112)
(0.000100416 -0.00030027 0.0102005)
(-0.000100416 -0.00030027 0.0102005)
(-0.00030771 -0.00030771 0.0102112)
(-0.000534101 -0.000322229 0.0102334)
(-0.000792704 -0.000341915 0.0102702)
(-0.00109752 -0.00036333 0.0103288)
(0.00112293 -0.00061828 0.0103523)
(0.000819308 -0.000586285 0.0102941)
(0.000556274 -0.000556274 0.0102561)
(0.000322229 -0.000534101 0.0102334)
(0.00010541 -0.000522833 0.0102226)
(-0.00010541 -0.000522833 0.0102226)
(-0.000322229 -0.000534101 0.0102334)
(-0.000556274 -0.000556274 0.0102561)
(-0.000819308 -0.000586285 0.0102941)
(-0.00112293 -0.00061828 0.0103523)
(0.00114776 -0.000905403 0.0103856)
(0.000855935 -0.000855935 0.0103329)
(0.000586285 -0.000819308 0.0102941)
(0.000341915 -0.000792704 0.0102702)
(0.000112158 -0.000779613 0.0102589)
(-0.000112158 -0.000779613 0.0102589)
(-0.000341915 -0.000792704 0.0102702)
(-0.000586285 -0.000819308 0.0102941)
(-0.000855935 -0.000855935 0.0103329)
(-0.00114776 -0.000905403 0.0103856)
(0.00122247 -0.00122247 0.0104217)
(0.000905403 -0.00114776 0.0103856)
(0.00061828 -0.00112293 0.0103523)
(0.00036333 -0.00109752 0.0103288)
(0.000119387 -0.00108568 0.0103173)
(-0.000119387 -0.00108568 0.0103173)
(-0.00036333 -0.00109752 0.0103288)
(-0.00061828 -0.00112293 0.0103523)
(-0.000905403 -0.00114776 0.0103856)
(-0.00122247 -0.00122247 0.0104217)
(0.000767308 0.000767308 0.0126445)
(0.000607311 0.000810899 0.0126258)
(0.000432542 0.000837282 0.0125421)
(0.000258834 0.000848235 0.012458)
(8.57217e-05 0.000853434 0.0124096)
(-8.57217e-05 0.000853434 0.0124096)
(-0.000258834 0.000848235 0.012458)
(-0.000432542 0.000837282 0.0125421)
(-0.000607311 0.000810899 0.0126258)
(-0.000767308 0.000767308 0.0126445)
(0.000810899 0.000607311 0.0126258)
(0.000630357 0.000630357 0.012478)
(0.000443088 0.00063849 0.0123019)
(0.000262078 0.000639146 0.0121655)
(8.65353e-05 0.000638988 0.0120938)
(-8.65353e-05 0.000638988 0.0120938)
(-0.000262078 0.000639146 0.0121655)
(-0.000443088 0.00063849 0.0123019)
(-0.000630357 0.000630357 0.012478)
(-0.000810899 0.000607311 0.0126258)
(0.000837282 0.000432542 0.0125421)
(0.00063849 0.000443088 0.0123019)
(0.000444037 0.000444037 0.0120743)
(0.000260866 0.000441815 0.0119128)
(8.59515e-05 0.000440324 0.0118311)
(-8.59515e-05 0.000440324 0.0118311)
(-0.000260866 0.000441815 0.0119128)
(-0.000444037 0.000444037 0.0120743)
(-0.00063849 0.000443088 0.0123019)
(-0.000837282 0.000432542 0.0125421)
(0.000848235 0.000258834 0.012458)
(0.000639146 0.000262078 0.0121655)
(0.000441815 0.000260866 0.0119128)
(0.000258734 0.000258734 0.0117409)
(8.51628e-05 0.000257482 0.0116556)
(-8.51628e-05 0.000257482 0.0116556)
(-0.000258734 0.000258734 0.0117409)
(-0.000441815 0.000260866 0.0119128)
(-0.000639146 0.000262078 0.0121655)
(-0.000848235 0.000258834 0.012458)
(0.000853434 8.57217e-05 0.0124096)
(0.000638988 8.65353e-05 0.0120938)
(0.000440324 8.59515e-05 0.0118311)
(0.000257482 8.51628e-05 0.0116556)
(8.47117e-05 8.47117e-05 0.0115692)
(-8.47117e-05 8.47117e-05 0.0115692)
(-0.000257482 8.51628e-05 0.0116556)
(-0.000440324 8.59515e-05 0.0118311)
(-0.000638988 8.65353e-05 0.0120938)
(-0.000853434 8.57217e-05 0.0124096)
(0.000853434 -8.57217e-05 0.0124096)
(0.000638988 -8.65353e-05 0.0120938)
(0.000440324 -8.59515e-05 0.0118311)
(0.000257482 -8.51628e-05 0.0116556)
(8.47117e-05 -8.47117e-05 0.0115692)
(-8.47117e-05 -8.47117e-05 0.0115692)
(-0.000257482 -8.51628e-05 0.0116556)
(-0.000440324 -8.59515e-05 0.0118311)
(-0.000638988 -8.65353e-05 0.0120938)
(-0.000853434 -8.57217e-05 0.0124096)
(0.000848235 -0.000258834 0.012458)
(0.000639146 -0.000262078 0.0121655)
(0.000441815 -0.000260866 0.0119128)
(0.000258734 -0.000258734 0.0117409)
(8.51628e-05 -0.000257482 0.0116556)
(-8.51628e-05 -0.000257482 0.0116556)
(-0.000258734 -0.000258734 0.0117409)
(-0.000441815 -0.000260866 0.0119128)
(-0.000639146 -0.000262078 0.0121655)
(-0.000848235 -0.000258834 0.012458)
(0.000837282 -0.000432542 0.0125421)
(0.00063849 -0.000443088 0.0123019)
(0.000444037 -0.000444037 0.0120743)
(0.000260866 -0.000441815 0.0119128)
(8.59515e-05 -0.000440324 0.0118311)
(-8.59515e-05 -0.000440324 0.0118311)
(-0.000260866 -0.000441815 0.0119128)
(-0.000444037 -0.000444037 0.0120743)
(-0.00063849 -0.000443088 0.0123019)
(-0.000837282 -0.000432542 0.0125421)
(0.000810899 -0.000607311 0.0126258)
(0.000630357 -0.000630357 0.012478)
(0.000443088 -0.00063849 0.0123019)
(0.000262078 -0.000639146 0.0121655)
(8.65353e-05 -0.000638988 0.0120938)
(-8.65353e-05 -0.000638988 0.0120938)
(-0.000262078 -0.000639146 0.0121655)
(-0.000443088 -0.00063849 0.0123019)
(-0.000630357 -0.000630357 0.012478)
(-0.000810899 -0.000607311 0.0126258)
(0.000767308 -0.000767308 0.0126445)
(0.000607311 -0.000810899 0.0126258)
(0.000432542 -0.000837282 0.0125421)
(0.000258834 -0.000848235 0.012458)
(8.57217e-05 -0.000853434 0.0124096)
(-8.57217e-05 -0.000853434 0.0124096)
(-0.000258834 -0.000848235 0.012458)
(-0.000432542 -0.000837282 0.0125421)
(-0.000607311 -0.000810899 0.0126258)
(-0.000767308 -0.000767308 0.0126445)
(0.000528216 0.000528216 0.012516)
(0.000442344 0.000594098 0.0127678)
(0.000333026 0.000639291 0.0128482)
(0.000206089 0.000666336 0.0128535)
(6.94586e-05 0.000679534 0.0128437)
(-6.94587e-05 0.000679534 0.0128437)
(-0.000206089 0.000666336 0.0128535)
(-0.000333026 0.000639291 0.0128482)
(-0.000442344 0.000594098 0.0127678)
(-0.000528216 0.000528216 0.012516)
(0.000594098 0.000442344 0.0127678)
(0.000496023 0.000496023 0.0128559)
(0.000369006 0.000529628 0.0128025)
(0.000226715 0.000548433 0.012726)
(7.62939e-05 0.000557232 0.0126786)
(-7.62939e-05 0.000557232 0.0126786)
(-0.000226715 0.000548433 0.012726)
(-0.000369006 0.000529628 0.0128025)
(-0.000496023 0.000496023 0.0128559)
(-0.000594098 0.000442344 0.0127678)
(0.000639291 0.000333026 0.0128482)
(0.000529628 0.000369006 0.0128025)
(0.000391464 0.000391464 0.0126641)
(0.000239461 0.000403895 0.012543)
(8.04886e-05 0.000409591 0.0124774)
(-8.04886e-05 0.000409591 0.0124774)
(-0.000239461 0.000403895 0.012543)
(-0.000391464 0.000391464 0.0126641)
(-0.000529628 0.000369007 0.0128025)
(-0.000639291 0.000333026 0.0128482)
(0.000666336 0.000206089 0.0128535)
(0.000548433 0.000226715 0.012726)
(0.000403895 0.000239461 0.012543)
(0.000246554 0.000246554 0.0124021)
(8.28229e-05 0.000249776 0.0123293)
(-8.28229e-05 0.000249776 0.0123293)
(-0.000246554 0.000246554 0.0124021)
(-0.000403895 0.000239461 0.012543)
(-0.000548433 0.000226715 0.012726)
(-0.000666336 0.000206089 0.0128535)
(0.000679534 6.94587e-05 0.0128437)
(0.000557232 7.62939e-05 0.0126786)
(0.000409591 8.04886e-05 0.0124774)
(0.000249776 8.28229e-05 0.0123293)
(8.38772e-05 8.38772e-05 0.0122544)
(-8.38772e-05 8.38772e-05 0.0122544)
(-0.000249776 8.28229e-05 0.0123293)
(-0.000409591 8.04886e-05 0.0124774)
(-0.000557232 7.62939e-05 0.0126786)
(-0.000679534 6.94586e-05 0.0128437)
(0.000679534 -6.94587e-05 0.0128437)
(0.000557232 -7.62939e-05 0.0126786)
(0.000409591 -8.04886e-05 0.0124774)
(0.000249776 -8.28229e-05 0.0123293)
(8.38772e-05 -8.38772e-05 0.0122544)
(-8.38772e-05 -8.38772e-05 0.0122544)
(-0.000249776 -8.28229e-05 0.0123293)
(-0.000409591 -8.04886e-05 0.0124774)
(-0.000557232 -7.62939e-05 0.0126786)
(-0.000679534 -6.94587e-05 0.0128437)
(0.000666336 -0.000206089 0.0128535)
(0.000548433 -0.000226715 0.012726)
(0.000403895 -0.000239461 0.012543)
(0.000246554 -0.000246554 0.0124021)
(8.28229e-05 -0.000249776 0.0123293)
(-8.28229e-05 -0.000249776 0.0123293)
(-0.000246554 -0.000246554 0.0124021)
(-0.000403895 -0.000239461 0.012543)
(-0.000548433 -0.000226715 0.012726)
(-0.000666336 -0.000206089 0.0128535)
(0.000639291 -0.000333026 0.0128482)
(0.000529628 -0.000369007 0.0128025)
(0.000391464 -0.000391464 0.0126641)
(0.000239461 -0.000403895 0.012543)
(8.04886e-05 -0.000409591 0.0124774)
(-8.04886e-05 -0.000409591 0.0124774)
(-0.000239461 -0.000403895 0.012543)
(-0.000391464 -0.000391464 0.0126641)
(-0.000529628 -0.000369006 0.0128025)
(-0.000639291 -0.000333026 0.0128482)
(0.000594098 -0.000442344 0.0127678)
(0.000496023 -0.000496023 0.0128559)
(0.000369007 -0.000529628 0.0128025)
(0.000226715 -0.000548433 0.012726)
(7.62939e-05 -0.000557232 0.0126786)
(-7.62939e-05 -0.000557232 0.0126786)
(-0.000226715 -0.000548433 0.012726)
(-0.000369006 -0.000529628 0.0128025)
(-0.000496023 -0.000496023 0.0128559)
(-0.000594098 -0.000442344 0.0127678)
(0.000528216 -0.000528216 0.012516)
(0.000442344 -0.000594098 0.0127678)
(0.000333026 -0.000639291 0.0128482)
(0.000206089 -0.000666336 0.0128535)
(6.94586e-05 -0.000679534 0.0128437)
(-6.94587e-05 -0.000679534 0.0128437)
(-0.000206089 -0.000666336 0.0128535)
(-0.000333026 -0.000639291 0.0128482)
(-0.000442344 -0.000594098 0.0127678)
(-0.000528216 -0.000528216 0.012516)
(0.000222261 0.000222261 0.012715)
(0.000196613 0.000272883 0.0130839)
(0.00015672 0.000309692 0.0132493)
(0.000100112 0.000334777 0.0133076)
(3.43082e-05 0.000347287 0.0133228)
(-3.43082e-05 0.000347287 0.0133228)
(-0.000100113 0.000334777 0.0133076)
(-0.00015672 0.000309692 0.0132493)
(-0.000196613 0.000272883 0.0130839)
(-0.000222261 0.000222261 0.012715)
(0.000272883 0.000196613 0.0130839)
(0.000243469 0.000243469 0.0133034)
(0.000191318 0.000277491 0.013335)
(0.000121733 0.000299458 0.0133084)
(4.16799e-05 0.000310306 0.013284)
(-4.16798e-05 0.000310306 0.013284)
(-0.000121733 0.000299458 0.0133084)
(-0.000191318 0.000277491 0.013335)
(-0.000243469 0.000243469 0.0133034)
(-0.000272883 0.000196613 0.0130839)
(0.000309692 0.00015672 0.0132493)
(0.000277491 0.000191318 0.013335)
(0.000217323 0.000217323 0.0132766)
(0.000137927 0.000234069 0.013201)
(4.71951e-05 0.00024229 0.013156)
(-4.71951e-05 0.00024229 0.013156)
(-0.000137927 0.000234069 0.013201)
(-0.000217323 0.000217323 0.0132766)
(-0.000277491 0.000191318 0.013335)
(-0.000309692 0.00015672 0.0132493)
(0.000334777 0.000100112 0.0133076)
(0.000299458 0.000121733 0.0133084)
(0.000234069 0.000137927 0.013201)
(0.000148355 0.000148355 0.0131022)
(5.07415e-05 0.000153449 0.0130484)
(-5.07415e-05 0.000153449 0.0130484)
(-0.000148355 0.000148355 0.0131022)
(-0.000234069 0.000137927 0.013201)
(-0.000299458 0.000121733 0.0133084)
(-0.000334777 0.000100112 0.0133076)
(0.000347287 3.43082e-05 0.0133228)
(0.000310306 4.16799e-05 0.013284)
(0.00024229 4.71951e-05 0.013156)
(0.000153449 5.07415e-05 0.0130484)
(5.24677e-05 5.24677e-05 0.0129915)
(-5.24677e-05 5.24677e-05 0.0129915)
(-0.000153449 5.07415e-05 0.0130484)
(-0.00024229 4.71951e-05 0.013156)
(-0.000310306 4.16798e-05 0.013284)
(-0.000347287 3.43081e-05 0.0133228)
(0.000347287 -3.43082e-05 0.0133228)
(0.000310306 -4.16798e-05 0.013284)
(0.00024229 -4.71951e-05 0.013156)
(0.000153449 -5.07415e-05 0.0130484)
(5.24677e-05 -5.24677e-05 0.0129915)
(-5.24677e-05 -5.24677e-05 0.0129915)
(-0.000153449 -5.07415e-05 0.0130484)
(-0.00024229 -4.71951e-05 0.013156)
(-0.000310306 -4.16799e-05 0.013284)
(-0.000347287 -3.43082e-05 0.0133228)
(0.000334777 -0.000100113 0.0133076)
(0.000299458 -0.000121733 0.0133084)
(0.000234069 -0.000137927 0.013201)
(0.000148355 -0.000148355 0.0131022)
(5.07415e-05 -0.000153449 0.0130484)
(-5.07415e-05 -0.000153449 0.0130484)
(-0.000148355 -0.000148355 0.0131022)
(-0.000234069 -0.000137927 0.013201)
(-0.000299458 -0.000121733 0.0133084)
(-0.000334777 -0.000100112 0.0133076)
(0.000309692 -0.00015672 0.0132493)
(0.000277491 -0.000191318 0.013335)
(0.000217323 -0.000217323 0.0132766)
(0.000137927 -0.000234069 0.013201)
(4.71951e-05 -0.00024229 0.013156)
(-4.71951e-05 -0.00024229 0.013156)
(-0.000137927 -0.000234069 0.013201)
(-0.000217323 -0.000217323 0.0132766)
(-0.000277491 -0.000191318 0.013335)
(-0.000309692 -0.00015672 0.0132493)
(0.000272883 -0.000196613 0.0130839)
(0.000243469 -0.000243469 0.0133034)
(0.000191318 -0.000277491 0.013335)
(0.000121733 -0.000299458 0.0133084)
(4.16798e-05 -0.000310306 0.013284)
(-4.16798e-05 -0.000310306 0.013284)
(-0.000121733 -0.000299458 0.0133084)
(-0.000191318 -0.000277491 0.013335)
(-0.000243469 -0.000243469 0.0133034)
(-0.000272883 -0.000196613 0.0130839)
(0.000222261 -0.000222261 0.012715)
(0.000196613 -0.000272883 0.0130839)
(0.00015672 -0.000309692 0.0132493)
(0.000100113 -0.000334777 0.0133076)
(3.43081e-05 -0.000347287 0.0133228)
(-3.43082e-05 -0.000347287 0.0133228)
(-0.000100112 -0.000334777 0.0133076)
(-0.00015672 -0.000309692 0.0132493)
(-0.000196613 -0.000272883 0.0130839)
(-0.000222261 -0.000222261 0.012715)
(9.50127e-05 9.50127e-05 0.0126394)
(8.66284e-05 0.00012031 0.013075)
(7.18387e-05 0.000140307 0.0132965)
(4.68959e-05 0.000154706 0.0133943)
(1.6254e-05 0.000162014 0.0134296)
(-1.6254e-05 0.000162014 0.0134296)
(-4.68959e-05 0.000154706 0.0133943)
(-7.18387e-05 0.000140307 0.0132965)
(-8.66284e-05 0.00012031 0.013075)
(-9.50127e-05 9.50127e-05 0.0126394)
(0.00012031 8.66284e-05 0.013075)
(0.000113006 0.000113006 0.0133839)
(9.24825e-05 0.000133508 0.0134853)
(6.0286e-05 0.000147467 0.0135061)
(2.08824e-05 0.000154514 0.0135055)
(-2.08823e-05 0.000154514 0.0135055)
(-6.0286e-05 0.000147467 0.0135061)
(-9.24825e-05 0.000133508 0.0134853)
(-0.000113006 0.000113006 0.0133839)
(-0.00012031 8.66284e-05 0.013075)
(0.000140307 7.18387e-05 0.0132965)
(0.000133508 9.24825e-05 0.0134853)
(0.000109046 0.000109046 0.0135049)
(7.09652e-05 0.000120229 0.0134808)
(2.45688e-05 0.000125839 0.0134612)
(-2.45688e-05 0.000125839 0.0134612)
(-7.09652e-05 0.000120229 0.0134808)
(-0.000109046 0.000109046 0.0135049)
(-0.000133508 9.24825e-05 0.0134853)
(-0.000140307 7.18387e-05 0.0132965)
(0.000154706 4.68959e-05 0.0133943)
(0.000147467 6.0286e-05 0.0135061)
(0.000120229 7.09652e-05 0.0134808)
(7.81263e-05 7.81263e-05 0.0134352)
(2.7032e-05 8.16946e-05 0.0134074)
(-2.7032e-05 8.16946e-05 0.0134074)
(-7.81263e-05 7.81263e-05 0.0134352)
(-0.000120229 7.09652e-05 0.0134808)
(-0.000147467 6.0286e-05 0.0135061)
(-0.000154706 4.68959e-05 0.0133943)
(0.000162014 1.6254e-05 0.0134296)
(0.000154514 2.08824e-05 0.0135055)
(0.000125839 2.45688e-05 0.0134612)
(8.16946e-05 2.7032e-05 0.0134074)
(2.82547e-05 2.82547e-05 0.0133767)
(-2.82547e-05 2.82547e-05 0.0133767)
(-8.16946e-05 2.7032e-05 0.0134074)
(-0.000125839 2.45688e-05 0.0134612)
(-0.000154514 2.08823e-05 0.0135055)
(-0.000162014 1.6254e-05 0.0134296)
(0.000162014 -1.6254e-05 0.0134296)
(0.000154514 -2.08823e-05 0.0135055)
(0.000125839 -2.45688e-05 0.0134612)
(8.16946e-05 -2.7032e-05 0.0134074)
(2.82547e-05 -2.82547e-05 0.0133767)
(-2.82547e-05 -2.82547e-05 0.0133767)
(-8.16946e-05 -2.7032e-05 0.0134074)
(-0.000125839 -2.45688e-05 0.0134612)
(-0.000154514 -2.08824e-05 0.0135055)
(-0.000162014 -1.6254e-05 0.0134296)
(0.000154706 -4.68959e-05 0.0133943)
(0.000147467 -6.0286e-05 0.0135061)
(0.000120229 -7.09652e-05 0.0134808)
(7.81263e-05 -7.81263e-05 0.0134352)
(2.7032e-05 -8.16946e-05 0.0134074)
(-2.7032e-05 -8.16946e-05 0.0134074)
(-7.81263e-05 -7.81263e-05 0.0134352)
(-0.000120229 -7.09652e-05 0.0134808)
(-0.000147467 -6.0286e-05 0.0135061)
(-0.000154706 -4.68959e-05 0.0133943)
(0.000140307 -7.18387e-05 0.0132965)
(0.000133508 -9.24825e-05 0.0134853)
(0.000109046 -0.000109046 0.0135049)
(7.09652e-05 -0.000120229 0.0134808)
(2.45688e-05 -0.000125839 0.0134612)
(-2.45688e-05 -0.000125839 0.0134612)
(-7.09652e-05 -0.000120229 0.0134808)
(-0.000109046 -0.000109046 0.0135049)
(-0.000133508 -9.24824e-05 0.0134853)
(-0.000140307 -7.18387e-05 0.0132965)
(0.00012031 -8.66284e-05 0.013075)
(0.000113006 -0.000113006 0.0133839)
(9.24825e-05 -0.000133508 0.0134853)
(6.0286e-05 -0.000147467 0.0135061)
(2.08823e-05 -0.000154514 0.0135055)
(-2.08824e-05 -0.000154514 0.0135055)
(-6.0286e-05 -0.000147467 0.0135061)
(-9.24824e-05 -0.000133508 0.0134853)
(-0.000113006 -0.000113006 0.0133839)
(-0.00012031 -8.66284e-05 0.013075)
(9.50127e-05 -9.50127e-05 0.0126394)
(8.66284e-05 -0.00012031 0.013075)
(7.18387e-05 -0.000140307 0.0132965)
(4.68959e-05 -0.000154706 0.0133943)
(1.6254e-05 -0.000162014 0.0134296)
(-1.6254e-05 -0.000162014 0.0134296)
(-4.68959e-05 -0.000154706 0.0133943)
(-7.18386e-05 -0.000140307 0.0132965)
(-8.66284e-05 -0.00012031 0.013075)
(-9.50127e-05 -9.50127e-05 0.0126394)
(3.23935e-05 3.23934e-05 0.012587)
(3.15143e-05 4.4287e-05 0.0130412)
(2.78317e-05 5.42158e-05 0.0132826)
(1.87732e-05 6.17174e-05 0.0133964)
(6.61689e-06 6.55835e-05 0.0134405)
(-6.61689e-06 6.55836e-05 0.0134405)
(-1.87732e-05 6.17174e-05 0.0133964)
(-2.78317e-05 5.42158e-05 0.0132826)
(-3.15143e-05 4.4287e-05 0.0130412)
(-3.23934e-05 3.23934e-05 0.012587)
(4.4287e-05 3.15143e-05 0.0130412)
(4.49293e-05 4.49293e-05 0.0133846)
(3.8887e-05 5.59934e-05 0.0135181)
(2.61765e-05 6.38758e-05 0.0135631)
(9.20576e-06 6.79334e-05 0.0135751)
(-9.20576e-06 6.79334e-05 0.0135751)
(-2.61765e-05 6.38758e-05 0.0135631)
(-3.8887e-05 5.59934e-05 0.0135181)
(-4.49293e-05 4.49293e-05 0.0133846)
(-4.4287e-05 3.15143e-05 0.0130412)
(5.42158e-05 2.78317e-05 0.0132826)
(5.59934e-05 3.88869e-05 0.0135181)
(4.82569e-05 4.82569e-05 0.0135789)
(3.2389e-05 5.48329e-05 0.0135843)
(1.1374e-05 5.8194e-05 0.0135799)
(-1.1374e-05 5.8194e-05 0.0135799)
(-3.2389e-05 5.48329e-05 0.0135843)
(-4.82569e-05 4.82569e-05 0.0135789)
(-5.59934e-05 3.8887e-05 0.0135181)
(-5.42158e-05 2.78317e-05 0.0132826)
(6.17174e-05 1.87732e-05 0.0133964)
(6.38758e-05 2.61765e-05 0.0135631)
(5.48329e-05 3.2389e-05 0.0135843)
(3.67004e-05 3.67004e-05 0.0135712)
(1.28716e-05 3.88873e-05 0.0135598)
(-1.28716e-05 3.88873e-05 0.0135598)
(-3.67004e-05 3.67004e-05 0.0135712)
(-5.48329e-05 3.2389e-05 0.0135843)
(-6.38758e-05 2.61765e-05 0.0135631)
(-6.17174e-05 1.87732e-05 0.0133964)
(6.55835e-05 6.61689e-06 0.0134405)
(6.79334e-05 9.20577e-06 0.0135751)
(5.8194e-05 1.1374e-05 0.0135799)
(3.88873e-05 1.28716e-05 0.0135598)
(1.36283e-05 1.36283e-05 0.0135461)
(-1.36283e-05 1.36283e-05 0.0135461)
(-3.88873e-05 1.28716e-05 0.0135598)
(-5.8194e-05 1.1374e-05 0.0135799)
(-6.79333e-05 9.20576e-06 0.0135751)
(-6.55835e-05 6.61688e-06 0.0134405)
(6.55835e-05 -6.61689e-06 0.0134405)
(6.79334e-05 -9.20575e-06 0.0135751)
(5.8194e-05 -1.1374e-05 0.0135799)
(3.88873e-05 -1.28716e-05 0.0135598)
(1.36283e-05 -1.36283e-05 0.0135461)
(-1.36283e-05 -1.36283e-05 0.0135461)
(-3.88873e-05 -1.28716e-05 0.0135598)
(-5.8194e-05 -1.1374e-05 0.0135799)
(-6.79334e-05 -9.20576e-06 0.0135751)
(-6.55835e-05 -6.61689e-06 0.0134405)
(6.17174e-05 -1.87732e-05 0.0133964)
(6.38758e-05 -2.61765e-05 0.0135631)
(5.48329e-05 -3.2389e-05 0.0135843)
(3.67004e-05 -3.67004e-05 0.0135712)
(1.28716e-05 -3.88873e-05 0.0135598)
(-1.28716e-05 -3.88873e-05 0.0135598)
(-3.67004e-05 -3.67004e-05 0.0135712)
(-5.48329e-05 -3.2389e-05 0.0135843)
(-6.38758e-05 -2.61765e-05 0.0135631)
(-6.17174e-05 -1.87732e-05 0.0133964)
(5.42158e-05 -2.78317e-05 0.0132826)
(5.59934e-05 -3.8887e-05 0.0135181)
(4.82569e-05 -4.82569e-05 0.0135789)
(3.2389e-05 -5.48329e-05 0.0135843)
(1.1374e-05 -5.8194e-05 0.0135799)
(-1.1374e-05 -5.8194e-05 0.0135799)
(-3.2389e-05 -5.48329e-05 0.0135843)
(-4.82569e-05 -4.82569e-05 0.0135789)
(-5.59934e-05 -3.88869e-05 0.0135181)
(-5.42158e-05 -2.78317e-05 0.0132826)
(4.4287e-05 -3.15143e-05 0.0130412)
(4.49293e-05 -4.49293e-05 0.0133846)
(3.8887e-05 -5.59934e-05 0.0135181)
(2.61765e-05 -6.38757e-05 0.0135631)
(9.20576e-06 -6.79333e-05 0.0135751)
(-9.20576e-06 -6.79333e-05 0.0135751)
(-2.61765e-05 -6.38758e-05 0.0135631)
(-3.88869e-05 -5.59934e-05 0.0135181)
(-4.49293e-05 -4.49293e-05 0.0133846)
(-4.4287e-05 -3.15143e-05 0.0130412)
(3.23934e-05 -3.23934e-05 0.012587)
(3.15143e-05 -4.4287e-05 0.0130412)
(2.78317e-05 -5.42158e-05 0.0132826)
(1.87732e-05 -6.17174e-05 0.0133964)
(6.61688e-06 -6.55835e-05 0.0134405)
(-6.61689e-06 -6.55835e-05 0.0134405)
(-1.87732e-05 -6.17174e-05 0.0133964)
(-2.78317e-05 -5.42158e-05 0.0132826)
(-3.15143e-05 -4.4287e-05 0.0130412)
(-3.23935e-05 -3.23935e-05 0.012587)
(8.78029e-06 8.78029e-06 0.012564)
(9.30584e-06 1.33528e-05 0.0130229)
(8.89332e-06 1.74033e-05 0.0132713)
(6.22106e-06 2.06385e-05 0.0133914)
(2.23877e-06 2.2331e-05 0.0134391)
(-2.23877e-06 2.2331e-05 0.0134391)
(-6.22106e-06 2.06386e-05 0.0133914)
(-8.89333e-06 1.74033e-05 0.0132713)
(-9.30584e-06 1.33528e-05 0.0130229)
(-8.78028e-06 8.78029e-06 0.012564)
(1.33528e-05 9.30584e-06 0.0130229)
(1.4914e-05 1.4914e-05 0.013379)
(1.37828e-05 1.98495e-05 0.0135261)
(9.6086e-06 2.35457e-05 0.013582)
(3.43692e-06 2.54875e-05 0.0136)
(-3.43691e-06 2.54875e-05 0.0136)
(-9.60859e-06 2.35457e-05 0.013582)
(-1.37829e-05 1.98496e-05 0.0135261)
(-1.4914e-05 1.4914e-05 0.013379)
(-1.33528e-05 9.30585e-06 0.0130229)
(1.74033e-05 8.89333e-06 0.0132713)
(1.98495e-05 1.37828e-05 0.0135261)
(1.81846e-05 1.81846e-05 0.0136059)
(1.2619e-05 2.14117e-05 0.0136257)
(4.49996e-06 2.30951e-05 0.0136289)
(-4.49995e-06 2.30951e-05 0.0136289)
(-1.2619e-05 2.14117e-05 0.0136257)
(-1.81845e-05 1.81846e-05 0.0136059)
(-1.98495e-05 1.37829e-05 0.0135261)
(-1.74033e-05 8.89334e-06 0.0132713)
(2.06385e-05 6.22106e-06 0.0133914)
(2.35457e-05 9.6086e-06 0.013582)
(2.14117e-05 1.2619e-05 0.0136257)
(1.47945e-05 1.47945e-05 0.0136291)
(5.26435e-06 1.59208e-05 0.0136262)
(-5.26434e-06 1.59208e-05 0.0136262)
(-1.47944e-05 1.47945e-05 0.0136291)
(-2.14117e-05 1.2619e-05 0.0136257)
(-2.35457e-05 9.60859e-06 0.013582)
(-2.06386e-05 6.22106e-06 0.0133914)
(2.2331e-05 2.23877e-06 0.0134391)
(2.54875e-05 3.43692e-06 0.0136)
(2.30951e-05 4.49996e-06 0.0136289)
(1.59208e-05 5.26436e-06 0.0136262)
(5.65882e-06 5.65883e-06 0.0136214)
(-5.65882e-06 5.65883e-06 0.0136214)
(-1.59208e-05 5.26435e-06 0.0136262)
(-2.30951e-05 4.49996e-06 0.0136289)
(-2.54875e-05 3.43691e-06 0.0136)
(-2.2331e-05 2.23876e-06 0.0134391)
(2.2331e-05 -2.23877e-06 0.0134391)
(2.54875e-05 -3.43691e-06 0.0136)
(2.30951e-05 -4.49995e-06 0.0136289)
(1.59208e-05 -5.26434e-06 0.0136262)
(5.65882e-06 -5.65882e-06 0.0136214)
(-5.65882e-06 -5.65882e-06 0.0136214)
(-1.59208e-05 -5.26434e-06 0.0136262)
(-2.30951e-05 -4.49995e-06 0.0136289)
(-2.54875e-05 -3.43691e-06 0.0136)
(-2.2331e-05 -2.23876e-06 0.0134391)
(2.06386e-05 -6.22106e-06 0.0133914)
(2.35457e-05 -9.60859e-06 0.013582)
(2.14117e-05 -1.2619e-05 0.0136257)
(1.47944e-05 -1.47944e-05 0.0136291)
(5.26435e-06 -1.59208e-05 0.0136262)
(-5.26434e-06 -1.59208e-05 0.0136262)
(-1.47944e-05 -1.47944e-05 0.0136291)
(-2.14117e-05 -1.2619e-05 0.0136257)
(-2.35457e-05 -9.60859e-06 0.013582)
(-2.06385e-05 -6.22105e-06 0.0133914)
(1.74033e-05 -8.89333e-06 0.0132713)
(1.98495e-05 -1.37829e-05 0.0135261)
(1.81845e-05 -1.81845e-05 0.0136059)
(1.2619e-05 -2.14117e-05 0.0136257)
(4.49996e-06 -2.30951e-05 0.0136289)
(-4.49995e-06 -2.30951e-05 0.0136289)
(-1.2619e-05 -2.14117e-05 0.0136257)
(-1.81845e-05 -1.81845e-05 0.0136059)
(-1.98495e-05 -1.37828e-05 0.0135261)
(-1.74033e-05 -8.89332e-06 0.0132713)
(1.33528e-05 -9.30585e-06 0.0130229)
(1.4914e-05 -1.4914e-05 0.013379)
(1.37829e-05 -1.98495e-05 0.0135261)
(9.60859e-06 -2.35457e-05 0.013582)
(3.43691e-06 -2.54875e-05 0.0136)
(-3.43691e-06 -2.54875e-05 0.0136)
(-9.60859e-06 -2.35457e-05 0.013582)
(-1.37828e-05 -1.98495e-05 0.0135261)
(-1.4914e-05 -1.4914e-05 0.013379)
(-1.33528e-05 -9.30584e-06 0.0130229)
(8.78029e-06 -8.78029e-06 0.012564)
(9.30585e-06 -1.33528e-05 0.0130229)
(8.89334e-06 -1.74033e-05 0.0132713)
(6.22106e-06 -2.06385e-05 0.0133914)
(2.23876e-06 -2.2331e-05 0.0134391)
(-2.23876e-06 -2.2331e-05 0.0134391)
(-6.22105e-06 -2.06385e-05 0.0133914)
(-8.89332e-06 -1.74033e-05 0.0132713)
(-9.30585e-06 -1.33528e-05 0.0130229)
(-8.78029e-06 -8.78029e-06 0.012564)
(1.93029e-06 1.93029e-06 0.0125541)
(2.33692e-06 3.44022e-06 0.0130137)
(2.49402e-06 4.84708e-06 0.013264)
(1.82237e-06 6.03721e-06 0.0133863)
(6.73704e-07 6.66563e-06 0.0134353)
(-6.73705e-07 6.66563e-06 0.0134353)
(-1.82238e-06 6.03721e-06 0.0133863)
(-2.49402e-06 4.84707e-06 0.013264)
(-2.33691e-06 3.44021e-06 0.0130137)
(-1.93028e-06 1.93029e-06 0.0125541)
(3.44022e-06 2.33692e-06 0.0130137)
(4.35416e-06 4.35415e-06 0.0133736)
(4.33679e-06 6.2255e-06 0.0135258)
(3.13543e-06 7.689e-06 0.0135861)
(1.14219e-06 8.47062e-06 0.0136067)
(-1.14219e-06 8.47062e-06 0.0136067)
(-3.13543e-06 7.689e-06 0.0135861)
(-4.33679e-06 6.2255e-06 0.0135258)
(-4.35415e-06 4.35415e-06 0.0133736)
(-3.44021e-06 2.33691e-06 0.0130137)
(4.84708e-06 2.49402e-06 0.013264)
(6.2255e-06 4.33679e-06 0.0135258)
(6.08337e-06 6.08336e-06 0.0136133)
(4.36325e-06 7.41549e-06 0.0136395)
(1.58006e-06 8.12238e-06 0.0136461)
(-1.58006e-06 8.12237e-06 0.0136461)
(-4.36325e-06 7.41549e-06 0.0136395)
(-6.08336e-06 6.08337e-06 0.0136133)
(-6.2255e-06 4.33679e-06 0.0135258)
(-4.84707e-06 2.49402e-06 0.013264)
(6.03721e-06 1.82238e-06 0.0133863)
(7.689e-06 3.13543e-06 0.0135861)
(7.41549e-06 4.36325e-06 0.0136395)
(5.28492e-06 5.28492e-06 0.0136503)
(1.90725e-06 5.77075e-06 0.0136514)
(-1.90724e-06 5.77076e-06 0.0136514)
(-5.28492e-06 5.28492e-06 0.0136503)
(-7.41549e-06 4.36325e-06 0.0136395)
(-7.68899e-06 3.13543e-06 0.0135861)
(-6.03721e-06 1.82238e-06 0.0133863)
(6.66563e-06 6.73706e-07 0.0134353)
(8.47061e-06 1.14219e-06 0.0136067)
(8.12237e-06 1.58006e-06 0.0136461)
(5.77076e-06 1.90725e-06 0.0136514)
(2.07932e-06 2.07932e-06 0.0136508)
(-2.07931e-06 2.07932e-06 0.0136508)
(-5.77075e-06 1.90725e-06 0.0136514)
(-8.12237e-06 1.58006e-06 0.0136461)
(-8.47061e-06 1.14219e-06 0.0136067)
(-6.66563e-06 6.73703e-07 0.0134353)
(6.66563e-06 -6.73707e-07 0.0134353)
(8.47061e-06 -1.14219e-06 0.0136067)
(8.12238e-06 -1.58006e-06 0.0136461)
(5.77076e-06 -1.90724e-06 0.0136514)
(2.07932e-06 -2.07931e-06 0.0136508)
(-2.07931e-06 -2.07931e-06 0.0136508)
(-5.77075e-06 -1.90724e-06 0.0136514)
(-8.12237e-06 -1.58005e-06 0.0136461)
(-8.47061e-06 -1.14219e-06 0.0136067)
(-6.66563e-06 -6.73706e-07 0.0134353)
(6.0372e-06 -1.82238e-06 0.0133863)
(7.689e-06 -3.13543e-06 0.0135861)
(7.41549e-06 -4.36325e-06 0.0136395)
(5.28492e-06 -5.28492e-06 0.0136503)
(1.90725e-06 -5.77075e-06 0.0136514)
(-1.90724e-06 -5.77075e-06 0.0136514)
(-5.28491e-06 -5.28491e-06 0.0136503)
(-7.41549e-06 -4.36325e-06 0.0136395)
(-7.68899e-06 -3.13543e-06 0.0135861)
(-6.0372e-06 -1.82237e-06 0.0133863)
(4.84707e-06 -2.49402e-06 0.013264)
(6.2255e-06 -4.33678e-06 0.0135258)
(6.08337e-06 -6.08336e-06 0.0136133)
(4.36325e-06 -7.41549e-06 0.0136395)
(1.58006e-06 -8.12237e-06 0.0136461)
(-1.58006e-06 -8.12237e-06 0.0136461)
(-4.36325e-06 -7.41549e-06 0.0136395)
(-6.08337e-06 -6.08336e-06 0.0136133)
(-6.22549e-06 -4.33678e-06 0.0135258)
(-4.84706e-06 -2.49401e-06 0.013264)
(3.44022e-06 -2.33691e-06 0.0130137)
(4.35415e-06 -4.35414e-06 0.0133736)
(4.33679e-06 -6.22549e-06 0.0135258)
(3.13543e-06 -7.68899e-06 0.0135861)
(1.1422e-06 -8.47061e-06 0.0136067)
(-1.14219e-06 -8.47061e-06 0.0136067)
(-3.13543e-06 -7.68899e-06 0.0135861)
(-4.33678e-06 -6.22549e-06 0.0135258)
(-4.35414e-06 -4.35414e-06 0.0133736)
(-3.44022e-06 -2.33691e-06 0.0130137)
(1.93029e-06 -1.93028e-06 0.0125541)
(2.33692e-06 -3.44022e-06 0.0130137)
(2.49402e-06 -4.84707e-06 0.013264)
(1.82238e-06 -6.0372e-06 0.0133863)
(6.73705e-07 -6.66563e-06 0.0134353)