/*--------------------------------*- C++ -*----------------------------------*\
| =========                 |                                                 |
| \\      /  F ield         | OpenFOAM: The Open Source CFD Toolbox           |
|  \\    /   O peration     | Version:  2412                                  |
|   \\  /    A nd           | Website:  www.openfoam.com                      |
|    \\/     M anipulation  |                                                 |
\*---------------------------------------------------------------------------*/
FoamFile
{
    version     2.0;
    format      ascii;
    arch        "LSB;label=32;scalar=64";
    class       surfaceScalarField;
    location    "1";
    object      phi;
}
// * * * * * * * * * * * * * * * * * * * * * * * * * * * * * * * * * * * * * //

dimensions      [0 3 -1 0 0 0 0];

oriented        oriented;

internalField   nonuniform List<scalar> 
43700
(
9.82651e-08
9.82651e-08
5.14213e-07
-1.20363e-07
-1.20363e-07
7.09796e-08
8.42811e-08
5.5333e-07
-1.00942e-07
4.69477e-08
7.74669e-08
5.82896e-07
-9.69008e-08
2.32662e-08
7.27408e-08
6.0269e-07
-9.20375e-08
-7.08745e-15
7.05492e-08
6.12631e-07
-8.99854e-08
-2.32662e-08
7.05492e-08
6.12631e-07
-8.99854e-08
-4.69477e-08
7.27408e-08
6.0269e-07
-9.20375e-08
-7.09796e-08
7.74669e-08
5.82896e-07
-9.69008e-08
-9.82652e-08
8.42811e-08
5.5333e-07
-1.00942e-07
9.82652e-08
5.14213e-07
-1.20363e-07
-1.20363e-07
8.42811e-08
7.09795e-08
5.5333e-07
-1.00942e-07
6.30385e-08
6.30385e-08
5.88328e-07
4.19087e-08
5.75622e-08
6.14725e-07
2.08634e-08
5.38574e-08
6.32425e-07
4.35199e-16
5.20683e-08
6.41317e-07
-2.08634e-08
5.20683e-08
6.41317e-07
-4.19087e-08
5.38574e-08
6.32425e-07
-6.30385e-08
5.75622e-08
6.14725e-07
-8.42811e-08
6.30385e-08
5.88328e-07
7.09796e-08
5.5333e-07
-1.00942e-07
7.74669e-08
4.69477e-08
5.82896e-07
-9.69008e-08
5.75622e-08
4.19087e-08
6.14725e-07
3.80866e-08
3.80866e-08
6.38824e-07
1.89355e-08
3.55362e-08
6.55035e-07
9.15845e-16
3.42925e-08
6.63189e-07
-1.89355e-08
3.42925e-08
6.63189e-07
-3.80866e-08
3.55362e-08
6.55035e-07
-5.75622e-08
3.80866e-08
6.38824e-07
-7.74669e-08
4.19087e-08
6.14725e-07
4.69477e-08
5.82896e-07
-9.69008e-08
7.27408e-08
2.32662e-08
6.0269e-07
-9.20375e-08
5.38574e-08
2.08634e-08
6.32425e-07
3.55362e-08
1.89355e-08
6.55035e-07
1.76451e-08
1.76451e-08
6.70285e-07
6.74476e-16
1.70127e-08
6.77967e-07
-1.76451e-08
1.70127e-08
6.77967e-07
-3.55362e-08
1.76451e-08
6.70285e-07
-5.38574e-08
1.89355e-08
6.55035e-07
-7.27408e-08
2.08634e-08
6.32425e-07
2.32662e-08
6.0269e-07
-9.20375e-08
7.05492e-08
-5.03447e-15
6.12631e-07
-8.99854e-08
5.20683e-08
-5.82596e-15
6.41317e-07
3.42925e-08
-3.00202e-15
6.63189e-07
1.70127e-08
3.13657e-15
6.77967e-07
2.85182e-15
4.1051e-15
6.85418e-07
-1.70127e-08
4.68853e-15
6.85418e-07
-3.42925e-08
6.47267e-15
6.77967e-07
-5.20683e-08
1.06889e-14
6.63189e-07
-7.05492e-08
9.43332e-15
6.41317e-07
1.15016e-18
6.12631e-07
-8.99854e-08
7.05492e-08
-2.32662e-08
6.12631e-07
-8.99854e-08
5.20683e-08
-2.08634e-08
6.41317e-07
3.42925e-08
-1.89355e-08
6.63189e-07
1.70127e-08
-1.76451e-08
6.77967e-07
3.74877e-15
-1.70127e-08
6.85418e-07
-1.70127e-08
-1.70127e-08
6.85418e-07
-3.42925e-08
-1.76451e-08
6.77967e-07
-5.20683e-08
-1.89355e-08
6.63189e-07
-7.05492e-08
-2.08634e-08
6.41317e-07
-2.32662e-08
6.12631e-07
-8.99854e-08
7.27408e-08
-4.69477e-08
6.0269e-07
-9.20375e-08
5.38574e-08
-4.19087e-08
6.32425e-07
3.55362e-08
-3.80866e-08
6.55035e-07
1.76451e-08
-3.55362e-08
6.70285e-07
4.119e-15
-3.42925e-08
6.77967e-07
-1.76451e-08
-3.42925e-08
6.77967e-07
-3.55362e-08
-3.55362e-08
6.70285e-07
-5.38574e-08
-3.80866e-08
6.55035e-07
-7.27408e-08
-4.19087e-08
6.32425e-07
-4.69477e-08
6.0269e-07
-9.20375e-08
7.74669e-08
-7.09795e-08
5.82896e-07
-9.69008e-08
5.75622e-08
-6.30385e-08
6.14725e-07
3.80866e-08
-5.75622e-08
6.38824e-07
1.89355e-08
-5.38574e-08
6.55035e-07
6.5701e-15
-5.20683e-08
6.63189e-07
-1.89355e-08
-5.20683e-08
6.63189e-07
-3.80866e-08
-5.38574e-08
6.55035e-07
-5.75622e-08
-5.75622e-08
6.38824e-07
-7.74669e-08
-6.30384e-08
6.14725e-07
-7.09796e-08
5.82896e-07
-9.69008e-08
8.42811e-08
-9.82651e-08
5.5333e-07
-1.00942e-07
6.30385e-08
-8.42811e-08
5.88328e-07
4.19087e-08
-7.74669e-08
6.14725e-07
2.08634e-08
-7.27408e-08
6.32425e-07
7.58746e-15
-7.05492e-08
6.41317e-07
-2.08634e-08
-7.05492e-08
6.41317e-07
-4.19087e-08
-7.27408e-08
6.32425e-07
-6.30385e-08
-7.74669e-08
6.14725e-07
-8.42811e-08
-8.42811e-08
5.88328e-07
-9.82652e-08
5.5333e-07
-1.00942e-07
9.82651e-08
5.14213e-07
-1.20363e-07
-1.20363e-07
7.09795e-08
5.5333e-07
-1.00942e-07
4.69477e-08
5.82896e-07
-9.69008e-08
2.32662e-08
6.0269e-07
-9.20375e-08
2.05342e-15
6.12631e-07
-8.99854e-08
-2.32662e-08
6.12631e-07
-8.99854e-08
-4.69477e-08
6.0269e-07
-9.20375e-08
-7.09796e-08
5.82896e-07
-9.69008e-08
-9.82652e-08
5.5333e-07
-1.00942e-07
5.14213e-07
-1.20363e-07
-1.20363e-07
3.59953e-08
3.59952e-08
5.21611e-07
-3.9694e-08
-3.9694e-08
2.86702e-08
3.55556e-08
5.63155e-07
-3.80554e-08
2.02398e-08
3.59674e-08
5.94768e-07
-3.94091e-08
1.04065e-08
3.59884e-08
6.16023e-07
-3.94881e-08
-3.72645e-15
3.59947e-08
6.26717e-07
-3.96741e-08
-1.04065e-08
3.59947e-08
6.26717e-07
-3.96741e-08
-2.02399e-08
3.59884e-08
6.16023e-07
-3.94881e-08
-2.86703e-08
3.59674e-08
5.94768e-07
-3.94091e-08
-3.59953e-08
3.55556e-08
5.63155e-07
-3.80554e-08
3.59953e-08
5.21611e-07
-3.9694e-08
-3.9694e-08
3.55556e-08
2.86702e-08
5.63155e-07
-3.80554e-08
2.9252e-08
2.92519e-08
6.00936e-07
2.07812e-08
2.95501e-08
6.29613e-07
1.07664e-08
2.95488e-08
6.4888e-07
-7.62017e-16
2.95225e-08
6.58555e-07
-1.07664e-08
2.95224e-08
6.58555e-07
-2.07812e-08
2.95488e-08
6.4888e-07
-2.92519e-08
2.95501e-08
6.29613e-07
-3.55556e-08
2.9252e-08
6.00936e-07
2.86702e-08
5.63155e-07
-3.80554e-08
3.59674e-08
2.02398e-08
5.94768e-07
-3.94091e-08
2.95501e-08
2.07812e-08
6.29613e-07
2.09447e-08
2.09447e-08
6.56035e-07
1.08412e-08
2.09187e-08
6.73769e-07
2.16281e-15
2.08801e-08
6.82673e-07
-1.08412e-08
2.08801e-08
6.82673e-07
-2.09447e-08
2.09187e-08
6.73769e-07
-2.95501e-08
2.09447e-08
6.56035e-07
-3.59674e-08
2.07812e-08
6.29613e-07
2.02398e-08
5.94768e-07
-3.94091e-08
3.59884e-08
1.04065e-08
6.16023e-07
-3.94881e-08
2.95488e-08
1.07664e-08
6.4888e-07
2.09187e-08
1.08412e-08
6.73769e-07
1.08216e-08
1.08216e-08
6.90479e-07
1.69324e-15
1.07963e-08
6.98872e-07
-1.08216e-08
1.07963e-08
6.98872e-07
-2.09187e-08
1.08216e-08
6.90479e-07
-2.95488e-08
1.08412e-08
6.73769e-07
-3.59884e-08
1.07664e-08
6.4888e-07
1.04065e-08
6.16023e-07
-3.94881e-08
3.59947e-08
-3.18528e-15
6.26717e-07
-3.96741e-08
2.95224e-08
-5.3288e-15
6.58555e-07
2.08801e-08
-1.22825e-15
6.82673e-07
1.07963e-08
1.3454e-15
6.98872e-07
2.57926e-15
3.09247e-15
7.07011e-07
-1.07963e-08
3.14681e-15
7.07011e-07
-2.08801e-08
4.32835e-15
6.98872e-07
-2.95224e-08
1.08643e-14
6.82673e-07
-3.59947e-08
7.57967e-15
6.58555e-07
-9.81836e-16
6.26717e-07
-3.96741e-08
3.59947e-08
-1.04065e-08
6.26717e-07
-3.96741e-08
2.95224e-08
-1.07664e-08
6.58555e-07
2.08801e-08
-1.08412e-08
6.82673e-07
1.07963e-08
-1.08216e-08
6.98872e-07
3.04326e-15
-1.07963e-08
7.07011e-07
-1.07963e-08
-1.07963e-08
7.07011e-07
-2.08801e-08
-1.08216e-08
6.98872e-07
-2.95224e-08
-1.08412e-08
6.82673e-07
-3.59947e-08
-1.07664e-08
6.58555e-07
-1.04065e-08
6.26717e-07
-3.96741e-08
3.59884e-08
-2.02398e-08
6.16023e-07
-3.94881e-08
2.95488e-08
-2.07812e-08
6.4888e-07
2.09187e-08
-2.09447e-08
6.73769e-07
1.08216e-08
-2.09187e-08
6.90479e-07
4.51621e-15
-2.08801e-08
6.98872e-07
-1.08216e-08
-2.08801e-08
6.98872e-07
-2.09187e-08
-2.09187e-08
6.90479e-07
-2.95488e-08
-2.09447e-08
6.73769e-07
-3.59884e-08
-2.07812e-08
6.4888e-07
-2.02399e-08
6.16023e-07
-3.94881e-08
3.59674e-08
-2.86702e-08
5.94768e-07
-3.94091e-08
2.95501e-08
-2.92519e-08
6.29613e-07
2.09447e-08
-2.95501e-08
6.56035e-07
1.08412e-08
-2.95488e-08
6.73769e-07
5.37111e-15
-2.95224e-08
6.82673e-07
-1.08412e-08
-2.95224e-08
6.82673e-07
-2.09447e-08
-2.95488e-08
6.73769e-07
-2.95501e-08
-2.95501e-08
6.56035e-07
-3.59674e-08
-2.92519e-08
6.29613e-07
-2.86703e-08
5.94768e-07
-3.94091e-08
3.55556e-08
-3.59953e-08
5.63155e-07
-3.80554e-08
2.9252e-08
-3.55556e-08
6.00936e-07
2.07812e-08
-3.59674e-08
6.29613e-07
1.07664e-08
-3.59884e-08
6.4888e-07
5.58883e-15
-3.59947e-08
6.58555e-07
-1.07664e-08
-3.59947e-08
6.58555e-07
-2.07812e-08
-3.59884e-08
6.4888e-07
-2.92519e-08
-3.59674e-08
6.29613e-07
-3.55556e-08
-3.55556e-08
6.00936e-07
-3.59953e-08
5.63155e-07
-3.80554e-08
3.59952e-08
5.21611e-07
-3.9694e-08
-3.9694e-08
2.86702e-08
5.63155e-07
-3.80554e-08
2.02398e-08
5.94768e-07
-3.94091e-08
1.04065e-08
6.16023e-07
-3.94881e-08
-8.31563e-16
6.26717e-07
-3.96741e-08
-1.04065e-08
6.26717e-07
-3.96741e-08
-2.02399e-08
6.16023e-07
-3.94881e-08
-2.86703e-08
5.94768e-07
-3.9409e-08
-3.59953e-08
5.63155e-07
-3.80554e-08
5.21611e-07
-3.9694e-08
-3.9694e-08
1.50801e-08
1.50801e-08
5.23239e-07
-1.58941e-08
-1.58941e-08
1.23167e-08
1.52669e-08
5.66235e-07
-1.55839e-08
8.80623e-09
1.56905e-08
5.98908e-07
-1.63194e-08
4.5635e-09
1.58968e-08
6.20895e-07
-1.65257e-08
2.59607e-15
1.60018e-08
6.31957e-07
-1.66785e-08
-4.56349e-09
1.60018e-08
6.31957e-07
-1.66784e-08
-8.80621e-09
1.58968e-08
6.20895e-07
-1.65257e-08
-1.23167e-08
1.56905e-08
5.98908e-07
-1.63194e-08
-1.50801e-08
1.52669e-08
5.66235e-07
-1.55839e-08
1.50801e-08
5.23239e-07
-1.58941e-08
-1.58941e-08
1.52669e-08
1.23167e-08
5.66235e-07
-1.55839e-08
1.29301e-08
1.29301e-08
6.05609e-07
9.35676e-09
1.33511e-08
6.35526e-07
4.90273e-09
1.35714e-08
6.55659e-07
1.45593e-15
1.3676e-08
6.65784e-07
-4.90273e-09
1.3676e-08
6.65784e-07
-9.35676e-09
1.35714e-08
6.55659e-07
-1.29301e-08
1.33511e-08
6.35526e-07
-1.52669e-08
1.29301e-08
6.05609e-07
1.23167e-08
5.66235e-07
-1.55839e-08
1.56905e-08
8.80624e-09
5.98908e-07
-1.63194e-08
1.33511e-08
9.35675e-09
6.35526e-07
9.69391e-09
9.69391e-09
6.6335e-07
5.08968e-09
9.87163e-09
6.82073e-07
3.51176e-15
9.95178e-09
6.91487e-07
-5.08967e-09
9.95177e-09
6.91487e-07
-9.69391e-09
9.87163e-09
6.82073e-07
-1.33511e-08
9.69391e-09
6.6335e-07
-1.56905e-08
9.35675e-09
6.35526e-07
8.80621e-09
5.98908e-07
-1.63194e-08
1.58968e-08
4.5635e-09
6.20895e-07
-1.65257e-08
1.35714e-08
4.90273e-09
6.55659e-07
9.87163e-09
5.08967e-09
6.82073e-07
5.18853e-09
5.18853e-09
6.99845e-07
3.09574e-15
5.23205e-09
7.08781e-07
-5.18852e-09
5.23205e-09
7.08781e-07
-9.87162e-09
5.18853e-09
6.99845e-07
-1.35714e-08
5.08967e-09
6.82073e-07
-1.58968e-08
4.90273e-09
6.55659e-07
4.56349e-09
6.20895e-07
-1.65257e-08
1.60018e-08
5.45081e-15
6.31957e-07
-1.66784e-08
1.3676e-08
-2.16823e-15
6.65784e-07
9.95177e-09
2.82907e-15
6.91487e-07
5.23205e-09
4.5268e-15
7.08781e-07
3.38865e-15
4.69479e-15
7.17475e-07
-5.23204e-09
3.80762e-15
7.17475e-07
-9.95177e-09
3.54429e-15
7.08781e-07
-1.3676e-08
6.24996e-15
6.91487e-07
-1.60018e-08
3.86865e-15
6.65784e-07
2.64034e-15
6.31957e-07
-1.66785e-08
1.60018e-08
-4.56348e-09
6.31957e-07
-1.66785e-08
1.3676e-08
-4.90273e-09
6.65784e-07
9.95177e-09
-5.08967e-09
6.91487e-07
5.23205e-09
-5.18852e-09
7.08781e-07
2.01195e-15
-5.23204e-09
7.17475e-07
-5.23204e-09
-5.23204e-09
7.17475e-07
-9.95177e-09
-5.18852e-09
7.08781e-07
-1.3676e-08
-5.08966e-09
6.91487e-07
-1.60018e-08
-4.90272e-09
6.65784e-07
-4.56348e-09
6.31957e-07
-1.66785e-08
1.58968e-08
-8.80621e-09
6.20895e-07
-1.65257e-08
1.35714e-08
-9.35676e-09
6.55659e-07
9.87163e-09
-9.6939e-09
6.82073e-07
5.18853e-09
-9.87162e-09
6.99845e-07
2.80924e-15
-9.95177e-09
7.08781e-07
-5.18852e-09
-9.95177e-09
7.08781e-07
-9.87162e-09
-9.87162e-09
6.99845e-07
-1.35714e-08
-9.6939e-09
6.82073e-07
-1.58968e-08
-9.35674e-09
6.55659e-07
-8.80621e-09
6.20895e-07
-1.65257e-08
1.56905e-08
-1.23167e-08
5.98908e-07
-1.63194e-08
1.33511e-08
-1.29301e-08
6.35526e-07
9.69391e-09
-1.33511e-08
6.6335e-07
5.08967e-09
-1.35714e-08
6.82073e-07
5.29292e-15
-1.3676e-08
6.91487e-07
-5.08966e-09
-1.3676e-08
6.91487e-07
-9.69389e-09
-1.35714e-08
6.82073e-07
-1.33511e-08
-1.33511e-08
6.6335e-07
-1.56905e-08
-1.29301e-08
6.35526e-07
-1.23167e-08
5.98908e-07
-1.63194e-08
1.52669e-08
-1.50801e-08
5.66235e-07
-1.55839e-08
1.29301e-08
-1.52669e-08
6.05609e-07
9.35675e-09
-1.56905e-08
6.35526e-07
4.90273e-09
-1.58968e-08
6.55659e-07
4.06059e-16
-1.60018e-08
6.65784e-07
-4.90273e-09
-1.60018e-08
6.65784e-07
-9.35675e-09
-1.58968e-08
6.55659e-07
-1.29301e-08
-1.56905e-08
6.35526e-07
-1.52669e-08
-1.52669e-08
6.05609e-07
-1.50801e-08
5.66235e-07
-1.55839e-08
1.50801e-08
5.23239e-07
-1.58941e-08
-1.58941e-08
1.23167e-08
5.66235e-07
-1.55839e-08
8.80621e-09
5.98908e-07
-1.63194e-08
4.56349e-09
6.20895e-07
-1.65257e-08
-3.02257e-16
6.31957e-07
-1.66785e-08
-4.56349e-09
6.31957e-07
-1.66785e-08
-8.80623e-09
6.20895e-07
-1.65257e-08
-1.23168e-08
5.98908e-07
-1.63194e-08
-1.50801e-08
5.66235e-07
-1.55839e-08
5.23239e-07
-1.58941e-08
-1.58941e-08
5.51265e-09
5.51264e-09
5.23284e-07
-5.53498e-09
-5.53499e-09
4.68634e-09
5.88014e-09
5.66882e-07
-5.70081e-09
3.43543e-09
6.24987e-09
6.00059e-07
-6.15028e-09
1.80689e-09
6.46045e-09
6.22416e-07
-6.35268e-09
3.30879e-15
6.56336e-09
6.33669e-07
-6.46871e-09
-1.80688e-09
6.56336e-09
6.33669e-07
-6.46871e-09
-3.43541e-09
6.46044e-09
6.22416e-07
-6.35268e-09
-4.68631e-09
6.24986e-09
6.00059e-07
-6.15028e-09
-5.51265e-09
5.88016e-09
5.66882e-07
-5.70081e-09
5.51266e-09
5.23284e-07
-5.53499e-09
-5.53499e-09
5.88015e-09
4.68632e-09
5.66882e-07
-5.70082e-09
5.17119e-09
5.17119e-09
6.07027e-07
3.83456e-09
5.51649e-09
6.37596e-07
2.03677e-09
5.71782e-09
6.58199e-07
7.13189e-16
5.81473e-09
6.68569e-07
-2.03677e-09
5.81472e-09
6.68569e-07
-3.83456e-09
5.71782e-09
6.58199e-07
-5.17119e-09
5.51648e-09
6.37596e-07
-5.88014e-09
5.17119e-09
6.07027e-07
4.68634e-09
5.66882e-07
-5.70081e-09
6.24987e-09
3.43542e-09
6.00059e-07
-6.15028e-09
5.51648e-09
3.83456e-09
6.37596e-07
4.09898e-09
4.09898e-09
6.66185e-07
2.18009e-09
4.25497e-09
6.85454e-07
2.51517e-15
4.32905e-09
6.95152e-07
-2.18008e-09
4.32905e-09
6.95152e-07
-4.09898e-09
4.25497e-09
6.85454e-07
-5.51649e-09
4.09897e-09
6.66185e-07
-6.24988e-09
3.83456e-09
6.37596e-07
3.43543e-09
6.00059e-07
-6.15028e-09
6.46044e-09
1.80689e-09
6.22416e-07
-6.35268e-09
5.71782e-09
2.03677e-09
6.58199e-07
4.25497e-09
2.18009e-09
6.85454e-07
2.26538e-09
2.26538e-09
7.03825e-07
3.01913e-15
2.30561e-09
7.13069e-07
-2.26537e-09
2.30561e-09
7.13069e-07
-4.25497e-09
2.26538e-09
7.03825e-07
-5.71782e-09
2.18009e-09
6.85454e-07
-6.46044e-09
2.03677e-09
6.58199e-07
1.80689e-09
6.22416e-07
-6.35267e-09
6.56336e-09
9.55577e-16
6.33669e-07
-6.46871e-09
5.81472e-09
-7.23242e-16
6.68569e-07
4.32904e-09
2.18267e-15
6.95152e-07
2.30561e-09
3.01353e-15
7.13069e-07
3.90659e-15
4.77329e-15
7.22086e-07
-2.3056e-09
3.94405e-15
7.22086e-07
-4.32904e-09
3.96851e-15
7.13069e-07
-5.81472e-09
5.93355e-15
6.95152e-07
-6.56336e-09
3.12364e-15
6.68569e-07
2.3122e-15
6.33669e-07
-6.46871e-09
6.56336e-09
-1.80689e-09
6.33669e-07
-6.46871e-09
5.81472e-09
-2.03677e-09
6.68569e-07
4.32904e-09
-2.18008e-09
6.95152e-07
2.30561e-09
-2.26537e-09
7.13069e-07
3.38335e-15
-2.3056e-09
7.22086e-07
-2.3056e-09
-2.3056e-09
7.22086e-07
-4.32904e-09
-2.26537e-09
7.13069e-07
-5.81472e-09
-2.18008e-09
6.95152e-07
-6.56336e-09
-2.03676e-09
6.68569e-07
-1.80688e-09
6.33669e-07
-6.46871e-09
6.46043e-09
-3.43542e-09
6.22416e-07
-6.35267e-09
5.71781e-09
-3.83456e-09
6.58199e-07
4.25497e-09
-4.09898e-09
6.85454e-07
2.26538e-09
-4.25497e-09
7.03825e-07
3.43031e-15
-4.32904e-09
7.13069e-07
-2.26537e-09
-4.32904e-09
7.13069e-07
-4.25496e-09
-4.25497e-09
7.03825e-07
-5.71782e-09
-4.09897e-09
6.85454e-07
-6.46044e-09
-3.83455e-09
6.58199e-07
-3.43543e-09
6.22416e-07
-6.35267e-09
6.24988e-09
-4.68632e-09
6.00059e-07
-6.15028e-09
5.51648e-09
-5.17119e-09
6.37596e-07
4.09898e-09
-5.51649e-09
6.66185e-07
2.18009e-09
-5.71782e-09
6.85454e-07
4.75131e-15
-5.81472e-09
6.95152e-07
-2.18008e-09
-5.81472e-09
6.95152e-07
-4.09897e-09
-5.71782e-09
6.85454e-07
-5.51648e-09
-5.51647e-09
6.66185e-07
-6.24988e-09
-5.17118e-09
6.37596e-07
-4.68634e-09
6.00059e-07
-6.15027e-09
5.88016e-09
-5.51265e-09
5.66882e-07
-5.70082e-09
5.17119e-09
-5.88014e-09
6.07027e-07
3.83456e-09
-6.24988e-09
6.37596e-07
2.03677e-09
-6.46044e-09
6.58199e-07
1.76581e-15
-6.56336e-09
6.68569e-07
-2.03677e-09
-6.56336e-09
6.68569e-07
-3.83456e-09
-6.46044e-09
6.58199e-07
-5.17119e-09
-6.24986e-09
6.37596e-07
-5.88015e-09
-5.88014e-09
6.07027e-07
-5.51267e-09
5.66882e-07
-5.70081e-09
5.51265e-09
5.23284e-07
-5.53498e-09
-5.53499e-09
4.68633e-09
5.66882e-07
-5.70081e-09
3.43542e-09
6.00059e-07
-6.15028e-09
1.80689e-09
6.22416e-07
-6.35268e-09
1.83026e-15
6.33669e-07
-6.46871e-09
-1.80688e-09
6.33669e-07
-6.46871e-09
-3.43542e-09
6.22416e-07
-6.35267e-09
-4.68632e-09
6.00059e-07
-6.15027e-09
-5.51265e-09
5.66882e-07
-5.7008e-09
5.23284e-07
-5.535e-09
-5.535e-09
1.91358e-09
1.91358e-09
5.23193e-07
-1.86837e-09
-1.86837e-09
1.66781e-09
2.11972e-09
5.66994e-07
-1.98582e-09
1.24277e-09
2.31408e-09
6.00357e-07
-2.18668e-09
6.60373e-10
2.43378e-09
6.22857e-07
-2.29245e-09
1.23778e-16
2.49369e-09
6.34187e-07
-2.35086e-09
-6.60373e-10
2.49369e-09
6.34187e-07
-2.35086e-09
-1.24277e-09
2.43378e-09
6.22857e-07
-2.29245e-09
-1.66779e-09
2.31406e-09
6.00357e-07
-2.18667e-09
-1.91356e-09
2.11972e-09
5.66994e-07
-1.98582e-09
1.91358e-09
5.23193e-07
-1.86836e-09
-1.86837e-09
2.11974e-09
1.6678e-09
5.66994e-07
-1.98583e-09
1.91585e-09
1.91584e-09
6.07435e-07
1.44804e-09
2.10405e-09
6.38273e-07
7.77848e-10
2.22235e-09
6.59081e-07
2.66355e-16
2.28102e-09
6.6956e-07
-7.77848e-10
2.28102e-09
6.6956e-07
-1.44804e-09
2.22234e-09
6.59081e-07
-1.91585e-09
2.10404e-09
6.38273e-07
-2.11972e-09
1.91584e-09
6.07435e-07
1.66779e-09
5.66994e-07
-1.98581e-09
2.31408e-09
1.24277e-09
6.00357e-07
-2.18668e-09
2.10406e-09
1.44804e-09
6.38273e-07
1.59535e-09
1.59535e-09
6.67202e-07
8.58548e-10
1.68888e-09
6.86725e-07
3.45658e-15
1.73488e-09
6.96557e-07
-8.5854e-10
1.73488e-09
6.96557e-07
-1.59534e-09
1.68887e-09
6.86725e-07
-2.10405e-09
1.59534e-09
6.67202e-07
-2.31408e-09
1.44804e-09
6.38273e-07
1.24275e-09
6.00357e-07
-2.18668e-09
2.43378e-09
6.60375e-10
6.22857e-07
-2.29245e-09
2.22234e-09
7.77846e-10
6.59081e-07
1.68887e-09
8.58548e-10
6.86725e-07
9.10159e-10
9.10162e-10
7.05382e-07
4.00549e-15
9.35442e-10
7.14779e-07
-9.1015e-10
9.35441e-10
7.14779e-07
-1.68887e-09
9.10158e-10
7.05382e-07
-2.22234e-09
8.58545e-10
6.86725e-07
-2.43377e-09
7.77844e-10
6.59081e-07
6.60368e-10
6.22857e-07
-2.29245e-09
2.49369e-09
2.50102e-16
6.34187e-07
-2.35086e-09
2.28102e-09
2.24678e-15
6.6956e-07
1.73487e-09
5.05819e-15
6.96557e-07
9.35439e-10
5.04472e-15
7.14779e-07
3.5263e-15
5.3339e-15
7.23957e-07
-9.35431e-10
3.92349e-15
7.23957e-07
-1.73487e-09
2.7501e-15
7.14779e-07
-2.28102e-09
3.75816e-15
6.96557e-07
-2.49369e-09
1.01009e-15
6.6956e-07
1.69742e-15
6.34187e-07
-2.35086e-09
2.49369e-09
-6.60373e-10
6.34187e-07
-2.35086e-09
2.28102e-09
-7.77842e-10
6.6956e-07
1.73487e-09
-8.58536e-10
6.96557e-07
9.35438e-10
-9.10151e-10
7.14779e-07
2.3638e-15
-9.35431e-10
7.23957e-07
-9.35433e-10
-9.35433e-10
7.23957e-07
-1.73487e-09
-9.10153e-10
7.14779e-07
-2.28102e-09
-8.58536e-10
6.96557e-07
-2.49369e-09
-7.77841e-10
6.6956e-07
-6.60365e-10
6.34187e-07
-2.35086e-09
2.43377e-09
-1.24276e-09
6.22857e-07
-2.29245e-09
2.22234e-09
-1.44803e-09
6.59081e-07
1.68887e-09
-1.59534e-09
6.86725e-07
9.10155e-10
-1.68887e-09
7.05382e-07
1.5341e-15
-1.73487e-09
7.14779e-07
-9.10153e-10
-1.73487e-09
7.14779e-07
-1.68887e-09
-1.68887e-09
7.05382e-07
-2.22234e-09
-1.59533e-09
6.86725e-07
-2.43378e-09
-1.44803e-09
6.59081e-07
-1.24276e-09
6.22857e-07
-2.29245e-09
2.31406e-09
-1.66779e-09
6.00357e-07
-2.18667e-09
2.10404e-09
-1.91584e-09
6.38273e-07
1.59534e-09
-2.10405e-09
6.67202e-07
8.58543e-10
-2.22234e-09
6.86725e-07
2.6856e-15
-2.28102e-09
6.96557e-07
-8.58537e-10
-2.28102e-09
6.96557e-07
-1.59533e-09
-2.22234e-09
6.86725e-07
-2.10404e-09
-2.10404e-09
6.67202e-07
-2.31407e-09
-1.91583e-09
6.38273e-07
-1.6678e-09
6.00357e-07
-2.18667e-09
2.11973e-09
-1.91357e-09
5.66994e-07
-1.98582e-09
1.91584e-09
-2.1197e-09
6.07435e-07
1.44804e-09
-2.31407e-09
6.38273e-07
7.77844e-10
-2.43378e-09
6.59081e-07
3.96028e-16
-2.49369e-09
6.6956e-07
-7.77842e-10
-2.49369e-09
6.6956e-07
-1.44803e-09
-2.43378e-09
6.59081e-07
-1.91583e-09
-2.31407e-09
6.38273e-07
-2.11971e-09
-2.11971e-09
6.07435e-07
-1.91358e-09
5.66994e-07
-1.98581e-09
1.91357e-09
5.23193e-07
-1.86836e-09
-1.86837e-09
1.6678e-09
5.66994e-07
-1.98581e-09
1.24276e-09
6.00357e-07
-2.18668e-09
6.60367e-10
6.22857e-07
-2.29245e-09
3.04987e-15
6.34187e-07
-2.35086e-09
-6.60363e-10
6.34187e-07
-2.35086e-09
-1.24276e-09
6.22857e-07
-2.29245e-09
-1.6678e-09
6.00357e-07
-2.18667e-09
-1.91357e-09
5.66994e-07
-1.98581e-09
5.23193e-07
-1.86837e-09
-1.86837e-09
6.80173e-10
6.8017e-10
5.23142e-07
-6.54667e-10
-6.54676e-10
5.99964e-10
7.66701e-10
5.67012e-07
-7.04762e-10
4.50459e-10
8.48079e-10
6.00441e-07
-7.82942e-10
2.40548e-10
9.00313e-10
6.22993e-07
-8.26773e-10
-1.6079e-15
9.26811e-10
6.34351e-07
-8.50716e-10
-2.40552e-10
9.26808e-10
6.34351e-07
-8.50713e-10
-4.50459e-10
9.00305e-10
6.22993e-07
-8.26768e-10
-5.99963e-10
8.48084e-10
6.00441e-07
-7.82943e-10
-6.80173e-10
7.66713e-10
5.67012e-07
-7.04769e-10
6.80173e-10
5.23142e-07
-6.54668e-10
-6.54677e-10
7.66719e-10
5.9995e-10
5.67012e-07
-7.04769e-10
7.03459e-10
7.03452e-10
6.07562e-07
5.37346e-10
7.85002e-10
6.38503e-07
2.90516e-10
8.384e-10
6.5939e-07
-2.49125e-15
8.65398e-10
6.69912e-07
-2.90522e-10
8.65396e-10
6.69912e-07
-5.3736e-10
8.38396e-10
6.5939e-07
-7.03477e-10
7.85003e-10
6.38503e-07
-7.66741e-10
7.03463e-10
6.07562e-07
5.99939e-10
5.67012e-07
-7.04773e-10
8.48082e-10
4.50447e-10
6.00441e-07
-7.82946e-10
7.84999e-10
5.37343e-10
6.38503e-07
6.02737e-10
6.02741e-10
6.67567e-07
3.26819e-10
6.46024e-10
6.87193e-07
1.83326e-15
6.67783e-10
6.97082e-07
-3.26816e-10
6.67782e-10
6.97082e-07
-6.02737e-10
6.46021e-10
6.87193e-07
-7.85003e-10
6.02742e-10
6.67567e-07
-8.48087e-10
5.3735e-10
6.38503e-07
4.50443e-10
6.00441e-07
-7.82954e-10
9.00302e-10
2.40544e-10
6.22993e-07
-8.2677e-10
8.38387e-10
2.90514e-10
6.5939e-07
6.46013e-10
3.26821e-10
6.87193e-07
3.51034e-10
3.51039e-10
7.05972e-07
3.27795e-15
3.63182e-10
7.15435e-07
-3.51028e-10
3.63181e-10
7.15435e-07
-6.46009e-10
3.51037e-10
7.05972e-07
-8.38384e-10
3.26821e-10
6.87193e-07
-9.00295e-10
2.90515e-10
6.5939e-07
2.40546e-10
6.22993e-07
-8.26769e-10
9.26808e-10
-2.13511e-15
6.34351e-07
-8.50717e-10
8.6539e-10
8.93022e-16
6.69912e-07
6.67777e-10
3.89946e-15
6.97082e-07
3.63179e-10
4.57545e-15
7.15435e-07
3.63983e-15
4.94448e-15
7.24683e-07
-3.63172e-10
4.43755e-15
7.24683e-07
-6.67772e-10
4.19749e-15
7.15435e-07
-8.65388e-10
5.07893e-15
6.97082e-07
-9.26805e-10
1.43528e-15
6.69912e-07
1.72209e-15
6.34351e-07
-8.50716e-10
9.26809e-10
-2.4055e-10
6.34351e-07
-8.50715e-10
8.65391e-10
-2.90511e-10
6.69912e-07
6.67777e-10
-3.26813e-10
6.97082e-07
3.63178e-10
-3.51029e-10
7.15435e-07
3.58763e-15
-3.63172e-10
7.24683e-07
-3.63172e-10
-3.63172e-10
7.24683e-07
-6.67772e-10
-3.51028e-10
7.15435e-07
-8.65388e-10
-3.2681e-10
6.97082e-07
-9.26805e-10
-2.90514e-10
6.69912e-07
-2.40542e-10
6.34351e-07
-8.50717e-10
9.00294e-10
-4.50451e-10
6.22993e-07
-8.26764e-10
8.38382e-10
-5.37344e-10
6.5939e-07
6.4601e-10
-6.02735e-10
6.87193e-07
3.51032e-10
-6.46016e-10
7.05972e-07
2.49686e-15
-6.67776e-10
7.15435e-07
-3.51027e-10
-6.67775e-10
7.15435e-07
-6.46008e-10
-6.46012e-10
7.05972e-07
-8.38383e-10
-6.02731e-10
6.87193e-07
-9.00293e-10
-5.37348e-10
6.5939e-07
-4.50439e-10
6.22993e-07
-8.26766e-10
8.48062e-10
-5.99941e-10
6.00441e-07
-7.8294e-10
7.8499e-10
-7.03465e-10
6.38503e-07
6.02733e-10
-7.85002e-10
6.67567e-07
3.26817e-10
-8.38395e-10
6.87193e-07
2.35326e-15
-8.65393e-10
6.97082e-07
-3.26812e-10
-8.65392e-10
6.97082e-07
-6.02732e-10
-8.38388e-10
6.87193e-07
-7.84995e-10
-7.84993e-10
6.67567e-07
-8.48075e-10
-7.0346e-10
6.38503e-07
-5.99942e-10
6.00441e-07
-7.82939e-10
7.66738e-10
-6.80172e-10
5.67012e-07
-7.04774e-10
7.0347e-10
-7.66711e-10
6.07562e-07
5.37353e-10
-8.48082e-10
6.38503e-07
2.90518e-10
-9.00304e-10
6.5939e-07
-5.62954e-17
-9.26808e-10
6.69912e-07
-2.90518e-10
-9.26808e-10
6.69912e-07
-5.37353e-10
-9.00298e-10
6.5939e-07
-7.0347e-10
-8.48068e-10
6.38503e-07
-7.66732e-10
-7.6671e-10
6.07562e-07
-6.80176e-10
5.67012e-07
-7.04766e-10
6.8018e-10
5.23142e-07
-6.54672e-10
-6.54677e-10
5.99958e-10
5.67012e-07
-7.04758e-10
4.50454e-10
6.00441e-07
-7.82944e-10
2.40546e-10
6.22993e-07
-8.26769e-10
4.43855e-16
6.34351e-07
-8.50718e-10
-2.40548e-10
6.34351e-07
-8.50717e-10
-4.50454e-10
6.22993e-07
-8.26764e-10
-5.99952e-10
6.00441e-07
-7.82937e-10
-6.80175e-10
5.67012e-07
-7.04757e-10
5.23142e-07
-6.54675e-10
-6.54675e-10
2.44478e-10
2.44486e-10
5.2312e-07
-2.3325e-10
-2.33251e-10
2.1738e-10
2.78703e-10
5.67014e-07
-2.53229e-10
1.64047e-10
3.10843e-10
6.00466e-07
-2.82912e-10
8.78956e-11
3.31894e-10
6.23038e-07
-3.00088e-10
-5.25761e-15
3.42652e-10
6.34406e-07
-3.09413e-10
-8.79077e-11
3.42651e-10
6.34406e-07
-3.09411e-10
-1.64063e-10
3.31892e-10
6.23038e-07
-3.00082e-10
-2.17392e-10
3.10826e-10
6.00466e-07
-2.82904e-10
-2.44483e-10
2.7868e-10
5.67014e-07
-2.53218e-10
2.44476e-10
5.2312e-07
-2.33248e-10
-2.33249e-10
2.787e-10
2.1739e-10
5.67014e-07
-2.53229e-10
2.58169e-10
2.58164e-10
6.07603e-07
1.98549e-10
2.90968e-10
6.38582e-07
1.07791e-10
3.12912e-10
6.59499e-07
-7.12703e-16
3.24124e-10
6.70038e-07
-1.07794e-10
3.24123e-10
6.70038e-07
-1.98551e-10
3.1291e-10
6.59499e-07
-2.58174e-10
2.90959e-10
6.38582e-07
-2.78718e-10
2.58157e-10
6.07603e-07
2.17369e-10
5.67014e-07
-2.53235e-10
3.10859e-10
1.64043e-10
6.00466e-07
-2.82913e-10
2.90976e-10
1.98551e-10
6.38582e-07
2.25215e-10
2.25212e-10
6.67698e-07
1.22712e-10
2.43265e-10
6.87365e-07
4.22065e-15
2.52454e-10
6.97276e-07
-1.22702e-10
2.52452e-10
6.97276e-07
-2.25202e-10
2.4326e-10
6.87365e-07
-2.90959e-10
2.25204e-10
6.67698e-07
-3.10831e-10
1.9854e-10
6.38582e-07
1.64041e-10
6.00466e-07
-2.8291e-10
3.31899e-10
8.789e-11
6.23038e-07
-3.0009e-10
3.12915e-10
1.07793e-10
6.59499e-07
2.43264e-10
1.22712e-10
6.87365e-07
1.32899e-10
1.32901e-10
7.06193e-07
4.9599e-15
1.38078e-10
7.15682e-07
-1.32889e-10
1.38076e-10
7.15682e-07
-2.43252e-10
1.32896e-10
7.06193e-07
-3.12902e-10
1.22705e-10
6.87365e-07
-3.31885e-10
1.07785e-10
6.59499e-07
8.78956e-11
6.23038e-07
-3.00085e-10
3.42651e-10
-5.90688e-15
6.34406e-07
-3.09415e-10
3.24122e-10
2.26467e-15
6.70038e-07
2.52451e-10
5.47356e-15
6.97276e-07
1.38076e-10
6.13058e-15
7.15682e-07
4.26328e-15
5.42038e-15
7.24959e-07
-1.38068e-10
3.904e-15
7.24959e-07
-2.52443e-10
2.00544e-15
7.15682e-07
-3.24116e-10
1.08135e-15
6.97276e-07
-3.42647e-10
-3.16816e-15
6.70038e-07
2.09772e-15
6.34406e-07
-3.09415e-10
3.42649e-10
-8.79069e-11
6.34406e-07
-3.0941e-10
3.2412e-10
-1.07788e-10
6.70038e-07
2.52448e-10
-1.22701e-10
6.97276e-07
1.38074e-10
-1.32889e-10
7.15682e-07
2.67166e-15
-1.38068e-10
7.24959e-07
-1.38069e-10
-1.38069e-10
7.24959e-07
-2.52445e-10
-1.32892e-10
7.15682e-07
-3.24117e-10
-1.22705e-10
6.97276e-07
-3.42647e-10
-1.07793e-10
6.70038e-07
-8.78896e-11
6.34406e-07
-3.09417e-10
3.31891e-10
-1.64061e-10
6.23038e-07
-3.00082e-10
3.12908e-10
-1.98545e-10
6.59499e-07
2.43258e-10
-2.25201e-10
6.87365e-07
1.32894e-10
-2.43254e-10
7.06193e-07
1.29155e-15
-2.52444e-10
7.15682e-07
-1.32892e-10
-2.52445e-10
7.15682e-07
-2.43257e-10
-2.43257e-10
7.06193e-07
-3.12905e-10
-2.25207e-10
6.87365e-07
-3.31886e-10
-1.98552e-10
6.59499e-07
-1.64036e-10
6.23038e-07
-3.00083e-10
3.10837e-10
-2.17392e-10
6.00466e-07
-2.82909e-10
2.90964e-10
-2.58166e-10
6.38582e-07
2.25208e-10
-2.90959e-10
6.67698e-07
1.22708e-10
-3.12905e-10
6.87365e-07
2.40954e-15
-3.24116e-10
6.97276e-07
-1.22703e-10
-3.24117e-10
6.97276e-07
-2.25204e-10
-3.12906e-10
6.87365e-07
-2.9096e-10
-2.90965e-10
6.67698e-07
-3.10839e-10
-2.58168e-10
6.38582e-07
-2.17374e-10
6.00466e-07
-2.82906e-10
2.78696e-10
-2.4448e-10
5.67014e-07
-2.53233e-10
2.5816e-10
-2.78694e-10
6.07603e-07
1.98542e-10
-3.10831e-10
6.38582e-07
1.07788e-10
-3.3189e-10
6.59499e-07
-7.62337e-16
-3.42647e-10
6.70038e-07
-1.0779e-10
-3.42646e-10
6.70038e-07
-1.98548e-10
-3.31888e-10
6.59499e-07
-2.58161e-10
-3.10849e-10
6.38582e-07
-2.78697e-10
-2.78703e-10
6.07603e-07
-2.44477e-10
5.67014e-07
-2.53221e-10
2.44471e-10
5.2312e-07
-2.33241e-10
-2.3325e-10
2.17372e-10
5.67014e-07
-2.53223e-10
1.64043e-10
6.00466e-07
-2.82908e-10
8.78936e-11
6.23038e-07
-3.00087e-10
2.61366e-15
6.34406e-07
-3.09417e-10
-8.78876e-11
6.34406e-07
-3.09417e-10
-1.64035e-10
6.23038e-07
-3.00085e-10
-2.17376e-10
6.00466e-07
-2.8291e-10
-2.44478e-10
5.67014e-07
-2.53223e-10
5.2312e-07
-2.33248e-10
-2.33246e-10
8.82032e-11
8.82079e-11
5.23111e-07
-8.3742e-11
-8.37408e-11
7.88123e-11
1.01307e-10
5.67014e-07
-9.14065e-11
5.96682e-11
1.13634e-10
6.00474e-07
-1.02505e-10
3.2039e-11
1.21814e-10
6.23052e-07
-1.09052e-10
-3.66529e-15
1.26013e-10
6.34425e-07
-1.12597e-10
-3.20477e-11
1.26011e-10
6.34425e-07
-1.12593e-10
-5.96818e-11
1.21817e-10
6.23052e-07
-1.09049e-10
-7.88354e-11
1.13646e-10
6.00474e-07
-1.02504e-10
-8.82141e-11
1.01296e-10
5.67014e-07
-9.14045e-11
8.82011e-11
5.23111e-07
-8.37396e-11
-8.37459e-11
1.01296e-10
7.88197e-11
5.67014e-07
-9.14002e-11
9.44187e-11
9.44215e-11
6.07616e-07
7.29447e-11
1.07159e-10
6.3861e-07
3.97128e-11
1.15799e-10
6.59539e-07
-1.68557e-15
1.20242e-10
6.70084e-07
-3.9717e-11
1.20241e-10
6.70084e-07
-7.29506e-11
1.15801e-10
6.59539e-07
-9.4422e-11
1.07163e-10
6.3861e-07
-1.01312e-10
9.44184e-11
6.07616e-07
7.8804e-11
5.67014e-07
-9.14067e-11
1.13633e-10
5.96688e-11
6.00474e-07
-1.025e-10
1.07158e-10
7.29481e-11
6.3861e-07
8.33918e-11
8.3395e-11
6.67746e-07
4.55892e-11
9.0573e-11
6.87428e-07
1.06076e-15
9.42551e-11
6.97348e-07
-4.55877e-11
9.42544e-11
6.97348e-07
-8.33906e-11
9.05735e-11
6.87428e-07
-1.07157e-10
8.33971e-11
6.67746e-07
-1.13636e-10
7.29467e-11
6.3861e-07
5.96627e-11
6.00474e-07
-1.02508e-10
1.21811e-10
3.20381e-11
6.23052e-07
-1.09049e-10
1.15798e-10
3.97148e-11
6.59539e-07
9.05718e-11
4.5592e-11
6.87428e-07
4.96659e-11
4.9667e-11
7.06274e-07
2.73218e-15
5.17556e-11
7.15774e-07
-4.9661e-11
5.17551e-11