/*--------------------------------*- C++ -*----------------------------------*\
| =========                 |                                                 |
| \\      /  F ield         | OpenFOAM: The Open Source CFD Toolbox           |
|  \\    /   O peration     | Version:  2412                                  |
|   \\  /    A nd           | Website:  www.openfoam.com                      |
|    \\/     M anipulation  |                                                 |
\*---------------------------------------------------------------------------*/
FoamFile
{
    version     2.0;
    format      ascii;
    arch        "LSB;label=32;scalar=64";
    class       volVectorField;
    location    "1";
    object      U;
}
// * * * * * * * * * * * * * * * * * * * * * * * * * * * * * * * * * * * * * //

dimensions      [0 1 -1 0 0 0 0];

internalField   nonuniform List<vector> 
15000
(
(0.000659915 0.000659915 0.0104746)
(0.000467051 0.000584984 0.0104209)
(0.000317933 0.00057282 0.0103833)
(0.000186908 0.000555067 0.0103588)
(6.12566e-05 0.000547629 0.0103469)
(-6.12567e-05 0.000547629 0.0103469)
(-0.000186908 0.000555067 0.0103588)
(-0.000317933 0.00057282 0.0103833)
(-0.000467051 0.000584984 0.0104209)
(-0.000659915 0.000659915 0.0104746)
(0.000584984 0.000467051 0.0104209)
(0.000434867 0.000434867 0.010366)
(0.000301648 0.000417619 0.0103268)
(0.000177479 0.000405728 0.0103017)
(5.84225e-05 0.000400307 0.0102896)
(-5.84225e-05 0.000400307 0.0102896)
(-0.000177479 0.000405728 0.0103017)
(-0.000301648 0.000417619 0.0103268)
(-0.000434867 0.000434867 0.010366)
(-0.000584984 0.000467051 0.0104209)
(0.00057282 0.000317933 0.0103833)
(0.000417619 0.000301648 0.0103268)
(0.000288176 0.000288176 0.0102875)
(0.000168676 0.000278403 0.0102629)
(5.5469e-05 0.000273616 0.0102511)
(-5.5469e-05 0.000273616 0.0102511)
(-0.000168676 0.000278403 0.0102629)
(-0.000288176 0.000288176 0.0102875)
(-0.000417619 0.000301648 0.0103268)
(-0.000572819 0.000317933 0.0103833)
(0.000555067 0.000186908 0.0103588)
(0.000405728 0.000177479 0.0103017)
(0.000278403 0.000168676 0.0102629)
(0.000162416 0.000162416 0.010239)
(5.33583e-05 0.000159317 0.0102276)
(-5.33583e-05 0.000159317 0.0102276)
(-0.000162416 0.000162416 0.010239)
(-0.000278403 0.000168676 0.0102629)
(-0.000405728 0.000177479 0.0103017)
(-0.000555067 0.000186908 0.0103588)
(0.000547629 6.12566e-05 0.0103469)
(0.000400307 5.84225e-05 0.0102896)
(0.000273616 5.5469e-05 0.0102511)
(0.000159317 5.33583e-05 0.0102276)
(5.23048e-05 5.23048e-05 0.0102164)
(-5.23047e-05 5.23048e-05 0.0102164)
(-0.000159317 5.33583e-05 0.0102276)
(-0.000273616 5.54691e-05 0.0102511)
(-0.000400307 5.84226e-05 0.0102896)
(-0.000547629 6.12567e-05 0.0103469)
(0.000547629 -6.12567e-05 0.0103469)
(0.000400307 -5.84226e-05 0.0102896)
(0.000273616 -5.54691e-05 0.0102511)
(0.000159317 -5.33583e-05 0.0102276)
(5.23048e-05 -5.23047e-05 0.0102164)
(-5.23047e-05 -5.23047e-05 0.0102164)
(-0.000159317 -5.33583e-05 0.0102276)
(-0.000273616 -5.54689e-05 0.0102511)
(-0.000400307 -5.84224e-05 0.0102896)
(-0.000547629 -6.12567e-05 0.0103469)
(0.000555067 -0.000186908 0.0103588)
(0.000405728 -0.000177479 0.0103017)
(0.000278403 -0.000168676 0.0102629)
(0.000162416 -0.000162416 0.010239)
(5.33583e-05 -0.000159317 0.0102276)
(-5.33583e-05 -0.000159317 0.0102276)
(-0.000162416 -0.000162416 0.010239)
(-0.000278403 -0.000168676 0.0102629)
(-0.000405728 -0.000177479 0.0103017)
(-0.000555067 -0.000186908 0.0103588)
(0.00057282 -0.000317933 0.0103833)
(0.000417619 -0.000301648 0.0103268)
(0.000288176 -0.000288176 0.0102875)
(0.000168676 -0.000278403 0.0102629)
(5.54691e-05 -0.000273616 0.0102511)
(-5.5469e-05 -0.000273616 0.0102511)
(-0.000168676 -0.000278403 0.0102629)
(-0.000288176 -0.000288176 0.0102875)
(-0.000417619 -0.000301648 0.0103268)
(-0.00057282 -0.000317933 0.0103833)
(0.000584984 -0.000467051 0.0104209)
(0.000434867 -0.000434867 0.010366)
(0.000301648 -0.000417619 0.0103268)
(0.000177479 -0.000405728 0.0103017)
(5.84226e-05 -0.000400307 0.0102896)
(-5.84225e-05 -0.000400307 0.0102896)
(-0.000177479 -0.000405728 0.0103017)
(-0.000301648 -0.000417619 0.0103268)
(-0.000434867 -0.000434868 0.010366)
(-0.000584984 -0.000467051 0.0104209)
(0.000659915 -0.000659915 0.0104746)
(0.000467051 -0.000584984 0.0104209)
(0.000317933 -0.00057282 0.0103833)
(0.000186908 -0.000555067 0.0103588)
(6.12567e-05 -0.000547629 0.0103469)
(-6.12567e-05 -0.000547629 0.0103469)
(-0.000186908 -0.000555067 0.0103588)
(-0.000317933 -0.00057282 0.0103833)
(-0.000467051 -0.000584984 0.0104209)
(-0.000659915 -0.000659915 0.0104746)
(0.000227373 0.000227373 0.0111616)
(0.000179313 0.000233903 0.0110771)
(0.000132034 0.000250424 0.0110166)
(8.15725e-05 0.000257566 0.0109766)
(2.73436e-05 0.00026179 0.010957)
(-2.73436e-05 0.00026179 0.010957)
(-8.15724e-05 0.000257566 0.0109766)
(-0.000132034 0.000250424 0.0110166)
(-0.000179313 0.000233903 0.0110771)
(-0.000227373 0.000227373 0.0111616)
(0.000233903 0.000179313 0.0110771)
(0.000193431 0.000193431 0.0109869)
(0.000145069 0.000205559 0.0109207)
(8.97711e-05 0.000212834 0.0108775)
(3.03128e-05 0.000216632 0.0108564)
(-3.03128e-05 0.000216632 0.0108564)
(-8.9771e-05 0.000212834 0.0108775)
(-0.000145069 0.000205558 0.0109207)
(-0.000193431 0.000193431 0.0109869)
(-0.000233903 0.000179313 0.0110771)
(0.000250424 0.000132034 0.0110166)
(0.000205558 0.00014507 0.0109207)
(0.000153847 0.000153847 0.0108518)
(9.49127e-05 0.000159011 0.0108075)
(3.20388e-05 0.000161513 0.010786)
(-3.20388e-05 0.000161513 0.010786)
(-9.49127e-05 0.000159011 0.0108075)
(-0.000153847 0.000153847 0.0108518)
(-0.000205558 0.000145069 0.0109207)
(-0.000250424 0.000132034 0.0110166)
(0.000257566 8.15725e-05 0.0109766)
(0.000212834 8.97711e-05 0.0108775)
(0.000159011 9.49127e-05 0.0108075)
(9.79361e-05 9.79361e-05 0.0107631)
(3.30459e-05 9.93815e-05 0.0107415)
(-3.30459e-05 9.93815e-05 0.0107415)
(-9.79361e-05 9.79361e-05 0.0107631)
(-0.000159011 9.49128e-05 0.0108075)
(-0.000212834 8.9771e-05 0.0108775)
(-0.000257566 8.15724e-05 0.0109766)
(0.00026179 2.73436e-05 0.010957)
(0.000216632 3.03127e-05 0.0108564)
(0.000161513 3.20388e-05 0.010786)
(9.93815e-05 3.30459e-05 0.0107415)
(3.35218e-05 3.35218e-05 0.01072)
(-3.35218e-05 3.35218e-05 0.01072)
(-9.93815e-05 3.30459e-05 0.0107415)
(-0.000161513 3.20389e-05 0.010786)
(-0.000216632 3.03128e-05 0.0108564)
(-0.00026179 2.73436e-05 0.010957)
(0.00026179 -2.73436e-05 0.010957)
(0.000216632 -3.03128e-05 0.0108564)
(0.000161513 -3.20388e-05 0.010786)
(9.93815e-05 -3.30459e-05 0.0107415)
(3.35218e-05 -3.35218e-05 0.01072)
(-3.35218e-05 -3.35218e-05 0.01072)
(-9.93814e-05 -3.30459e-05 0.0107415)
(-0.000161513 -3.20387e-05 0.010786)
(-0.000216632 -3.03127e-05 0.0108564)
(-0.00026179 -2.73436e-05 0.010957)
(0.000257566 -8.15725e-05 0.0109766)
(0.000212834 -8.97711e-05 0.0108775)
(0.000159011 -9.49128e-05 0.0108075)
(9.79361e-05 -9.79361e-05 0.0107631)
(3.30459e-05 -9.93814e-05 0.0107415)
(-3.30459e-05 -9.93814e-05 0.0107415)
(-9.79361e-05 -9.79361e-05 0.0107631)
(-0.000159011 -9.49127e-05 0.0108075)
(-0.000212834 -8.97711e-05 0.0108775)
(-0.000257566 -8.15726e-05 0.0109766)
(0.000250424 -0.000132034 0.0110166)
(0.000205558 -0.000145069 0.0109207)
(0.000153847 -0.000153847 0.0108518)
(9.49128e-05 -0.000159011 0.0108075)
(3.20388e-05 -0.000161513 0.010786)
(-3.20388e-05 -0.000161513 0.010786)
(-9.49127e-05 -0.000159011 0.0108075)
(-0.000153847 -0.000153847 0.0108518)
(-0.000205559 -0.00014507 0.0109207)
(-0.000250424 -0.000132034 0.0110166)
(0.000233903 -0.000179313 0.0110771)
(0.000193431 -0.000193431 0.0109869)
(0.000145069 -0.000205558 0.0109207)
(8.97711e-05 -0.000212834 0.0108775)
(3.03128e-05 -0.000216632 0.0108564)
(-3.03127e-05 -0.000216632 0.0108564)
(-8.97712e-05 -0.000212834 0.0108775)
(-0.00014507 -0.000205559 0.0109207)
(-0.000193431 -0.000193431 0.0109869)
(-0.000233903 -0.000179313 0.0110771)
(0.000227373 -0.000227373 0.0111616)
(0.000179313 -0.000233903 0.0110771)
(0.000132034 -0.000250424 0.0110166)
(8.15724e-05 -0.000257566 0.0109766)
(2.73436e-05 -0.00026179 0.010957)
(-2.73436e-05 -0.00026179 0.010957)
(-8.15727e-05 -0.000257566 0.0109766)
(-0.000132034 -0.000250424 0.0110166)
(-0.000179313 -0.000233903 0.0110771)
(-0.000227373 -0.000227373 0.0111616)
(9.53572e-05 9.53574e-05 0.0111259)
(7.6365e-05 9.95417e-05 0.0111023)
(5.751e-05 0.00010766 0.0110831)
(3.58521e-05 0.000111848 0.0110696)
(1.20837e-05 0.000114244 0.0110627)
(-1.20837e-05 0.000114244 0.0110627)
(-3.5852e-05 0.000111848 0.0110696)
(-5.751e-05 0.00010766 0.0110831)
(-7.63651e-05 9.95417e-05 0.0111023)
(-9.53573e-05 9.53572e-05 0.0111259)
(9.95417e-05 7.63651e-05 0.0111023)
(8.47761e-05 8.47762e-05 0.0110715)
(6.50776e-05 9.18608e-05 0.0110467)
(4.08593e-05 9.65491e-05 0.0110296)
(1.39032e-05 9.9042e-05 0.0110208)
(-1.39032e-05 9.9042e-05 0.0110208)
(-4.08593e-05 9.65491e-05 0.0110296)
(-6.50776e-05 9.18607e-05 0.0110467)
(-8.47761e-05 8.47762e-05 0.0110715)
(-9.95416e-05 7.63651e-05 0.0111023)
(0.00010766 5.75099e-05 0.0110831)
(9.18607e-05 6.50777e-05 0.0110467)
(7.07596e-05 7.07597e-05 0.0110179)
(4.44854e-05 7.4498e-05 0.0109981)
(1.51583e-05 7.63948e-05 0.0109881)
(-1.51583e-05 7.63948e-05 0.0109881)
(-4.44854e-05 7.4498e-05 0.0109981)
(-7.07596e-05 7.07597e-05 0.0110179)
(-9.18607e-05 6.50777e-05 0.0110467)
(-0.00010766 5.751e-05 0.0110831)
(0.000111848 3.5852e-05 0.0110696)
(9.65491e-05 4.08593e-05 0.0110296)
(7.4498e-05 4.44854e-05 0.0109981)
(4.68593e-05 4.68593e-05 0.0109767)
(1.59767e-05 4.80543e-05 0.0109658)
(-1.59766e-05 4.80543e-05 0.0109658)
(-4.68593e-05 4.68593e-05 0.0109767)
(-7.4498e-05 4.44854e-05 0.0109981)
(-9.65491e-05 4.08593e-05 0.0110296)
(-0.000111848 3.58521e-05 0.0110696)
(0.000114244 1.20837e-05 0.0110627)
(9.9042e-05 1.39032e-05 0.0110208)
(7.63948e-05 1.51583e-05 0.0109881)
(4.80543e-05 1.59767e-05 0.0109658)
(1.63858e-05 1.63858e-05 0.0109545)
(-1.63858e-05 1.63858e-05 0.0109545)
(-4.80543e-05 1.59767e-05 0.0109658)
(-7.63948e-05 1.51584e-05 0.0109881)
(-9.9042e-05 1.39032e-05 0.0110208)
(-0.000114244 1.20838e-05 0.0110627)
(0.000114244 -1.20837e-05 0.0110627)
(9.9042e-05 -1.39032e-05 0.0110208)
(7.63948e-05 -1.51583e-05 0.0109881)
(4.80543e-05 -1.59766e-05 0.0109658)
(1.63858e-05 -1.63858e-05 0.0109545)
(-1.63858e-05 -1.63858e-05 0.0109545)
(-4.80543e-05 -1.59766e-05 0.0109658)
(-7.63947e-05 -1.51583e-05 0.0109881)
(-9.90419e-05 -1.39032e-05 0.0110208)
(-0.000114244 -1.20837e-05 0.0110627)
(0.000111848 -3.5852e-05 0.0110696)
(9.65491e-05 -4.08593e-05 0.0110296)
(7.4498e-05 -4.44854e-05 0.0109981)
(4.68593e-05 -4.68593e-05 0.0109767)
(1.59767e-05 -4.80543e-05 0.0109658)
(-1.59766e-05 -4.80542e-05 0.0109658)
(-4.68593e-05 -4.68593e-05 0.0109767)
(-7.4498e-05 -4.44854e-05 0.0109981)
(-9.65492e-05 -4.08594e-05 0.0110296)
(-0.000111848 -3.58522e-05 0.0110696)
(0.00010766 -5.751e-05 0.0110831)
(9.18608e-05 -6.50777e-05 0.0110467)
(7.07596e-05 -7.07596e-05 0.0110179)
(4.44854e-05 -7.4498e-05 0.0109981)
(1.51584e-05 -7.63948e-05 0.0109881)
(-1.51583e-05 -7.63948e-05 0.0109881)
(-4.44854e-05 -7.4498e-05 0.0109981)
(-7.07597e-05 -7.07597e-05 0.0110179)
(-9.18609e-05 -6.50778e-05 0.0110467)
(-0.00010766 -5.75099e-05 0.0110831)
(9.95417e-05 -7.63651e-05 0.0111023)
(8.47762e-05 -8.47762e-05 0.0110715)
(6.50777e-05 -9.18608e-05 0.0110467)
(4.08594e-05 -9.65491e-05 0.0110296)
(1.39032e-05 -9.9042e-05 0.0110208)
(-1.39032e-05 -9.9042e-05 0.0110208)
(-4.08594e-05 -9.65491e-05 0.0110296)
(-6.50778e-05 -9.18609e-05 0.0110467)
(-8.47761e-05 -8.47761e-05 0.0110715)
(-9.95416e-05 -7.63649e-05 0.0111023)
(9.53573e-05 -9.53573e-05 0.0111259)
(7.63651e-05 -9.95417e-05 0.0111023)
(5.751e-05 -0.00010766 0.0110831)
(3.58521e-05 -0.000111848 0.0110696)
(1.20837e-05 -0.000114244 0.0110627)
(-1.20837e-05 -0.000114244 0.0110627)
(-3.58521e-05 -0.000111848 0.0110696)
(-5.751e-05 -0.00010766 0.0110831)
(-7.63649e-05 -9.95416e-05 0.0111023)
(-9.53573e-05 -9.53574e-05 0.0111259)
(3.42898e-05 3.429e-05 0.0111329)
(2.84431e-05 3.76631e-05 0.0111247)
(2.21982e-05 4.19789e-05 0.011117)
(1.40925e-05 4.44657e-05 0.0111113)
(4.79572e-06 4.58162e-05 0.0111084)
(-4.79568e-06 4.58162e-05 0.0111084)
(-1.40924e-05 4.44657e-05 0.0111113)
(-2.21981e-05 4.19789e-05 0.011117)
(-2.84431e-05 3.76629e-05 0.0111247)
(-3.42898e-05 3.42897e-05 0.0111329)
(3.76631e-05 2.84432e-05 0.0111247)
(3.33749e-05 3.33749e-05 0.0111123)
(2.64317e-05 3.74027e-05 0.0111017)
(1.68999e-05 4.01156e-05 0.0110941)
(5.80178e-06 4.15371e-05 0.0110902)
(-5.80178e-06 4.15371e-05 0.0110902)
(-1.68999e-05 4.01156e-05 0.0110941)
(-2.64318e-05 3.74026e-05 0.0111017)
(-3.33748e-05 3.33748e-05 0.0111123)
(-3.76629e-05 2.84431e-05 0.0111247)
(4.19789e-05 2.21981e-05 0.011117)
(3.74026e-05 2.64318e-05 0.0111017)
(2.96869e-05 2.9687e-05 0.0110889)
(1.89911e-05 3.187e-05 0.0110799)
(6.52604e-06 3.29829e-05 0.0110753)
(-6.52601e-06 3.29829e-05 0.0110753)
(-1.89911e-05 3.187e-05 0.0110799)
(-2.96869e-05 2.9687e-05 0.0110889)
(-3.74026e-05 2.64319e-05 0.0111017)
(-4.19788e-05 2.21981e-05 0.011117)
(4.44657e-05 1.40924e-05 0.0111113)
(4.01156e-05 1.68999e-05 0.0110941)
(3.187e-05 1.89911e-05 0.0110799)
(2.03995e-05 2.03995e-05 0.0110699)
(7.01448e-06 2.11168e-05 0.0110647)
(-7.01444e-06 2.11168e-05 0.0110647)
(-2.03995e-05 2.03996e-05 0.0110699)
(-3.187e-05 1.89911e-05 0.0110799)
(-4.01156e-05 1.68999e-05 0.0110941)
(-4.44657e-05 1.40924e-05 0.0111113)
(4.58162e-05 4.79571e-06 0.0111084)
(4.15371e-05 5.80176e-06 0.0110902)
(3.29829e-05 6.52604e-06 0.0110753)
(2.11168e-05 7.01448e-06 0.0110647)
(7.26234e-06 7.26235e-06 0.0110593)
(-7.26229e-06 7.26234e-06 0.0110593)
(-2.11167e-05 7.01449e-06 0.0110647)
(-3.29829e-05 6.52607e-06 0.0110753)
(-4.15371e-05 5.80181e-06 0.0110902)
(-4.58162e-05 4.79576e-06 0.0111084)
(4.58162e-05 -4.79569e-06 0.0111084)
(4.15371e-05 -5.80177e-06 0.0110902)
(3.29829e-05 -6.52602e-06 0.0110753)
(2.11168e-05 -7.01444e-06 0.0110647)
(7.26234e-06 -7.26229e-06 0.0110593)
(-7.2623e-06 -7.26229e-06 0.0110593)
(-2.11167e-05 -7.01444e-06 0.0110647)
(-3.29829e-05 -6.526e-06 0.0110753)
(-4.15371e-05 -5.80177e-06 0.0110902)
(-4.58162e-05 -4.79573e-06 0.0111084)
(4.44657e-05 -1.40924e-05 0.0111113)
(4.01156e-05 -1.68999e-05 0.0110941)
(3.187e-05 -1.89911e-05 0.0110799)
(2.03996e-05 -2.03995e-05 0.0110699)
(7.01449e-06 -2.11168e-05 0.0110647)
(-7.01445e-06 -2.11167e-05 0.0110647)
(-2.03995e-05 -2.03995e-05 0.0110699)
(-3.187e-05 -1.89911e-05 0.0110799)
(-4.01156e-05 -1.69e-05 0.0110941)
(-4.44657e-05 -1.40925e-05 0.0111113)
(4.19789e-05 -2.21981e-05 0.011117)
(3.74026e-05 -2.64318e-05 0.0111017)
(2.9687e-05 -2.96869e-05 0.0110889)
(1.89911e-05 -3.187e-05 0.0110799)
(6.52606e-06 -3.29829e-05 0.0110753)
(-6.52601e-06 -3.29829e-05 0.0110753)
(-1.89911e-05 -3.187e-05 0.0110799)
(-2.96871e-05 -2.96871e-05 0.0110889)
(-3.74027e-05 -2.6432e-05 0.0111017)
(-4.19788e-05 -2.21981e-05 0.011117)
(3.7663e-05 -2.84432e-05 0.0111247)
(3.33748e-05 -3.33748e-05 0.0111123)
(2.64319e-05 -3.74026e-05 0.0111017)
(1.68999e-05 -4.01155e-05 0.0110941)
(5.80179e-06 -4.15371e-05 0.0110902)
(-5.80177e-06 -4.15371e-05 0.0110902)
(-1.68999e-05 -4.01156e-05 0.0110941)
(-2.6432e-05 -3.74027e-05 0.0111017)
(-3.33748e-05 -3.33748e-05 0.0111123)
(-3.76629e-05 -2.8443e-05 0.0111247)
(3.42898e-05 -3.42899e-05 0.0111329)
(2.84432e-05 -3.76629e-05 0.0111247)
(2.21981e-05 -4.19789e-05 0.011117)
(1.40924e-05 -4.44657e-05 0.0111113)
(4.79571e-06 -4.58162e-05 0.0111084)
(-4.79569e-06 -4.58162e-05 0.0111084)
(-1.40925e-05 -4.44657e-05 0.0111113)
(-2.21982e-05 -4.19789e-05 0.011117)
(-2.8443e-05 -3.76629e-05 0.0111247)
(-3.42898e-05 -3.42899e-05 0.0111329)
(1.17837e-05 1.17838e-05 0.0111325)
(9.98139e-06 1.34113e-05 0.0111308)
(7.96884e-06 1.52933e-05 0.0111281)
(5.11797e-06 1.64593e-05 0.0111259)
(1.75332e-06 1.70888e-05 0.0111248)
(-1.75331e-06 1.70888e-05 0.0111248)
(-5.11793e-06 1.64594e-05 0.0111259)
(-7.96876e-06 1.52934e-05 0.0111281)
(-9.98143e-06 1.34114e-05 0.0111308)
(-1.17838e-05 1.17838e-05 0.0111325)
(1.34113e-05 9.98147e-06 0.0111308)
(1.22249e-05 1.2225e-05 0.0111263)
(9.91048e-06 1.40988e-05 0.0111221)
(6.42834e-06 1.54038e-05 0.0111189)
(2.22305e-06 1.60921e-05 0.0111173)
(-2.22305e-06 1.60921e-05 0.0111173)
(-6.42827e-06 1.54038e-05 0.0111189)
(-9.91048e-06 1.40988e-05 0.0111221)
(-1.2225e-05 1.22249e-05 0.0111263)
(-1.34113e-05 9.98146e-06 0.0111308)
(1.52933e-05 7.96883e-06 0.0111281)
(1.40987e-05 9.91052e-06 0.0111221)
(1.14746e-05 1.14747e-05 0.0111167)
(7.45427e-06 1.25592e-05 0.0111129)
(2.58144e-06 1.31205e-05 0.0111108)
(-2.5814e-06 1.31205e-05 0.0111108)
(-7.45421e-06 1.25592e-05 0.0111129)
(-1.14746e-05 1.14747e-05 0.0111167)
(-1.40987e-05 9.91054e-06 0.0111221)
(-1.52933e-05 7.96887e-06 0.0111281)
(1.64594e-05 5.11793e-06 0.0111259)
(1.54038e-05 6.42835e-06 0.0111189)
(1.25592e-05 7.4543e-06 0.0111129)
(8.17053e-06 8.17056e-06 0.0111085)
(2.83213e-06 8.54114e-06 0.0111062)
(-2.83208e-06 8.54114e-06 0.0111062)
(-8.1705e-06 8.17056e-06 0.0111085)
(-1.25592e-05 7.45427e-06 0.0111129)
(-1.54038e-05 6.42831e-06 0.0111189)
(-1.64594e-05 5.11796e-06 0.0111259)
(1.70888e-05 1.7533e-06 0.0111248)
(1.60921e-05 2.22305e-06 0.0111173)
(1.31204e-05 2.58146e-06 0.0111108)
(8.54112e-06 2.83214e-06 0.0111062)
(2.96146e-06 2.96148e-06 0.0111037)
(-2.96142e-06 2.96147e-06 0.0111037)
(-8.54108e-06 2.83213e-06 0.0111062)
(-1.31204e-05 2.58146e-06 0.0111108)
(-1.60921e-05 2.22307e-06 0.0111173)
(-1.70888e-05 1.75335e-06 0.0111248)
(1.70888e-05 -1.7533e-06 0.0111248)
(1.60921e-05 -2.22302e-06 0.0111173)
(1.31205e-05 -2.5814e-06 0.0111108)
(8.54112e-06 -2.83208e-06 0.0111062)
(2.96146e-06 -2.96141e-06 0.0111037)
(-2.96143e-06 -2.96142e-06 0.0111037)
(-8.54108e-06 -2.83209e-06 0.0111062)
(-1.31204e-05 -2.58141e-06 0.0111108)
(-1.60921e-05 -2.22306e-06 0.0111173)
(-1.70888e-05 -1.75333e-06 0.0111248)
(1.64594e-05 -5.11795e-06 0.0111259)
(1.54038e-05 -6.42827e-06 0.0111189)
(1.25592e-05 -7.45422e-06 0.0111129)
(8.17054e-06 -8.1705e-06 0.0111085)
(2.83212e-06 -8.54108e-06 0.0111062)
(-2.8321e-06 -8.54108e-06 0.0111062)
(-8.1705e-06 -8.1705e-06 0.0111085)
(-1.25592e-05 -7.45424e-06 0.0111129)
(-1.54038e-05 -6.42836e-06 0.0111189)
(-1.64594e-05 -5.118e-06 0.0111259)
(1.52934e-05 -7.96883e-06 0.0111281)
(1.40988e-05 -9.91055e-06 0.0111221)
(1.14746e-05 -1.14746e-05 0.0111167)
(7.45425e-06 -1.25592e-05 0.0111129)
(2.58145e-06 -1.31204e-05 0.0111108)
(-2.58141e-06 -1.31204e-05 0.0111108)
(-7.45424e-06 -1.25592e-05 0.0111129)
(-1.14747e-05 -1.14747e-05 0.0111167)
(-1.40988e-05 -9.91066e-06 0.0111221)
(-1.52933e-05 -7.96886e-06 0.0111281)
(1.34114e-05 -9.98147e-06 0.0111308)
(1.2225e-05 -1.22251e-05 0.0111263)
(9.91056e-06 -1.40988e-05 0.0111221)
(6.42828e-06 -1.54038e-05 0.0111189)
(2.22306e-06 -1.60921e-05 0.0111173)
(-2.22305e-06 -1.60921e-05 0.0111173)
(-6.42835e-06 -1.54038e-05 0.0111189)
(-9.91065e-06 -1.40988e-05 0.0111221)
(-1.2225e-05 -1.2225e-05 0.0111263)
(-1.34112e-05 -9.9814e-06 0.0111308)
(1.17838e-05 -1.17838e-05 0.0111325)
(9.98147e-06 -1.34114e-05 0.0111308)
(7.96891e-06 -1.52934e-05 0.0111281)
(5.11798e-06 -1.64594e-05 0.0111259)
(1.75336e-06 -1.70888e-05 0.0111248)
(-1.75332e-06 -1.70888e-05 0.0111248)
(-5.118e-06 -1.64594e-05 0.0111259)
(-7.96893e-06 -1.52933e-05 0.0111281)
(-9.98141e-06 -1.34113e-05 0.0111308)
(-1.17837e-05 -1.17837e-05 0.0111325)
(4.17144e-06 4.17158e-06 0.0111307)
(3.56676e-06 4.81977e-06 0.0111314)
(2.87982e-06 5.55272e-06 0.0111306)
(1.85934e-06 6.02412e-06 0.0111299)
(6.39155e-07 6.27897e-06 0.0111295)
(-6.39173e-07 6.27896e-06 0.0111295)
(-1.85926e-06 6.02412e-06 0.0111299)
(-2.87971e-06 5.55271e-06 0.0111306)
(-3.56676e-06 4.81978e-06 0.0111314)
(-4.17147e-06 4.17157e-06 0.0111307)
(4.81975e-06 3.5668e-06 0.0111314)
(4.46059e-06 4.46063e-06 0.0111301)
(3.66393e-06 5.22282e-06 0.0111285)
(2.39613e-06 5.76672e-06 0.0111273)
(8.32207e-07 6.05607e-06 0.0111267)
(-8.3224e-07 6.05609e-06 0.0111267)
(-2.39616e-06 5.76674e-06 0.0111273)
(-3.66393e-06 5.2228e-06 0.0111285)
(-4.46044e-06 4.46056e-06 0.0111301)
(-4.81963e-06 3.56682e-06 0.0111314)
(5.55273e-06 2.8798e-06 0.0111306)
(5.22278e-06 3.66396e-06 0.0111285)
(4.3171e-06 4.31712e-06 0.0111265)
(2.83235e-06 4.78196e-06 0.011125)
(9.8584e-07 5.02578e-06 0.0111242)
(-9.85815e-07 5.02579e-06 0.0111242)
(-2.83231e-06 4.78202e-06 0.011125)
(-4.31706e-06 4.31718e-06 0.0111265)
(-5.22272e-06 3.66402e-06 0.0111285)
(-5.55272e-06 2.87973e-06 0.0111306)
(6.02414e-06 1.85933e-06 0.0111299)
(5.76672e-06 2.39617e-06 0.0111273)
(4.78194e-06 2.83237e-06 0.011125)
(3.14542e-06 3.14543e-06 0.0111232)
(1.09637e-06 3.30973e-06 0.0111222)
(-1.09633e-06 3.30973e-06 0.0111222)
(-3.14539e-06 3.14545e-06 0.0111232)
(-4.78192e-06 2.83237e-06 0.011125)
(-5.76671e-06 2.39616e-06 0.0111273)
(-6.02413e-06 1.85927e-06 0.0111299)
(6.279e-06 6.39167e-07 0.0111295)
(6.05607e-06 8.32226e-07 0.0111267)
(5.02574e-06 9.85848e-07 0.0111242)
(3.30971e-06 1.09637e-06 0.0111222)
(1.15424e-06 1.15425e-06 0.0111212)
(-1.1542e-06 1.15425e-06 0.0111212)
(-3.30967e-06 1.09637e-06 0.0111222)
(-5.02571e-06 9.85862e-07 0.0111242)
(-6.05605e-06 8.32238e-07 0.0111267)
(-6.27898e-06 6.3919e-07 0.0111295)
(6.27899e-06 -6.39194e-07 0.0111295)
(6.05608e-06 -8.32213e-07 0.0111267)
(5.02575e-06 -9.85798e-07 0.0111242)
(3.30971e-06 -1.09631e-06 0.0111222)
(1.15425e-06 -1.15419e-06 0.0111212)
(-1.1542e-06 -1.15419e-06 0.0111212)
(-3.30967e-06 -1.09632e-06 0.0111222)
(-5.02572e-06 -9.858e-07 0.0111242)
(-6.05606e-06 -8.32219e-07 0.0111267)
(-6.27899e-06 -6.3917e-07 0.0111295)
(6.02418e-06 -1.85931e-06 0.0111299)
(5.76677e-06 -2.39612e-06 0.0111273)
(4.78196e-06 -2.83229e-06 0.011125)
(3.14542e-06 -3.14537e-06 0.0111232)
(1.09636e-06 -3.30967e-06 0.0111222)
(-1.09633e-06 -3.30968e-06 0.0111222)
(-3.14538e-06 -3.14539e-06 0.0111232)
(-4.78193e-06 -2.83231e-06 0.011125)
(-5.76673e-06 -2.39617e-06 0.0111273)
(-6.02415e-06 -1.85932e-06 0.0111299)
(5.5528e-06 -2.8797e-06 0.0111306)
(5.22286e-06 -3.664e-06 0.0111285)
(4.31712e-06 -4.31708e-06 0.0111265)
(2.83233e-06 -4.78194e-06 0.011125)
(9.85837e-07 -5.02574e-06 0.0111242)
(-9.8581e-07 -5.02575e-06 0.0111242)
(-2.8323e-06 -4.78196e-06 0.011125)
(-4.31713e-06 -4.31714e-06 0.0111265)
(-5.22283e-06 -3.66412e-06 0.0111285)
(-5.55272e-06 -2.87978e-06 0.0111306)
(4.81973e-06 -3.56673e-06 0.0111314)
(4.46057e-06 -4.46063e-06 0.0111301)
(3.66402e-06 -5.22283e-06 0.0111285)
(2.39613e-06 -5.76675e-06 0.0111273)
(8.32222e-07 -6.05607e-06 0.0111267)
(-8.32223e-07 -6.05608e-06 0.0111267)
(-2.39615e-06 -5.76675e-06 0.0111273)
(-3.6641e-06 -5.22285e-06 0.0111285)
(-4.46056e-06 -4.46061e-06 0.0111301)
(-4.81961e-06 -3.56676e-06 0.0111314)
(4.17143e-06 -4.17149e-06 0.0111307)
(3.56674e-06 -4.81968e-06 0.0111314)
(2.87982e-06 -5.55274e-06 0.0111306)
(1.85933e-06 -6.02413e-06 0.0111299)
(6.39186e-07 -6.27898e-06 0.0111295)
(-6.39179e-07 -6.27899e-06 0.0111295)
(-1.85931e-06 -6.02414e-06 0.0111299)
(-2.87982e-06 -5.55276e-06 0.0111306)
(-3.56674e-06 -4.81964e-06 0.0111314)
(-4.17141e-06 -4.17146e-06 0.0111307)
(1.49503e-06 1.49497e-06 0.0111299)
(1.28656e-06 1.74456e-06 0.0111314)
(1.04654e-06 2.02302e-06 0.0111314)
(6.78103e-07 2.20565e-06 0.0111312)
(2.33632e-07 2.30442e-06 0.011131)
(-2.33699e-07 2.30442e-06 0.011131)
(-6.78125e-07 2.20568e-06 0.0111312)
(-1.0465e-06 2.02314e-06 0.0111314)
(-1.2865e-06 1.74471e-06 0.0111314)
(-1.49493e-06 1.49516e-06 0.0111299)
(1.74454e-06 1.28657e-06 0.0111314)
(1.63003e-06 1.63001e-06 0.0111312)
(1.35038e-06 1.92673e-06 0.0111307)
(8.87841e-07 2.14145e-06 0.0111303)
(3.09218e-07 2.25627e-06 0.01113)
(-3.09226e-07 2.2563e-06 0.01113)
(-8.87792e-07 2.14153e-06 0.0111303)
(-1.35031e-06 1.92687e-06 0.0111307)
(-1.62999e-06 1.6302e-06 0.0111312)
(-1.74462e-06 1.28661e-06 0.0111314)
(2.02293e-06 1.04654e-06 0.0111314)
(1.92672e-06 1.35037e-06 0.0111307)
(1.60857e-06 1.60856e-06 0.0111299)
(1.06212e-06 1.79516e-06 0.0111294)
(3.70919e-07 1.89388e-06 0.011129)
(-3.70866e-07 1.89389e-06 0.011129)
(-1.06203e-06 1.79521e-06 0.0111294)
(-1.60843e-06 1.60857e-06 0.0111299)
(-1.92676e-06 1.35041e-06 0.0111307)
(-2.02311e-06 1.04648e-06 0.0111314)
(2.2056e-06 6.7813e-07 0.0111312)
(2.14144e-06 8.87899e-07 0.0111303)
(1.79517e-06 1.06214e-06 0.0111294)
(1.18934e-06 1.18935e-06 0.0111287)
(4.16091e-07 1.25674e-06 0.0111283)
(-4.1603e-07 1.25674e-06 0.0111283)
(-1.18928e-06 1.18935e-06 0.0111287)
(-1.7951e-06 1.06208e-06 0.0111294)
(-2.14146e-06 8.87774e-07 0.0111303)
(-2.20569e-06 6.78115e-07 0.0111312)
(2.30441e-06 2.33643e-07 0.011131)
(2.25625e-06 3.09251e-07 0.01113)
(1.89385e-06 3.70931e-07 0.011129)
(1.25672e-06 4.161e-07 0.0111283)
(4.39975e-07 4.39985e-07 0.0111279)
(-4.39921e-07 4.39976e-07 0.0111279)
(-1.25668e-06 4.1608e-07 0.0111283)
(-1.89382e-06 3.70903e-07 0.011129)
(-2.25625e-06 3.09202e-07 0.01113)
(-2.30443e-06 2.3369e-07 0.011131)
(2.30441e-06 -2.33714e-07 0.011131)
(2.25629e-06 -3.0922e-07 0.01113)
(1.89387e-06 -3.70861e-07 0.011129)
(1.25672e-06 -4.16026e-07 0.0111283)
(4.39967e-07 -4.39918e-07 0.0111279)
(-4.39934e-07 -4.39928e-07 0.0111279)
(-1.25669e-06 -4.16054e-07 0.0111283)
(-1.89383e-06 -3.70889e-07 0.011129)
(-2.25624e-06 -3.09243e-07 0.01113)
(-2.30443e-06 -2.33665e-07 0.011131)
(2.20568e-06 -6.78091e-07 0.0111312)
(2.14153e-06 -8.87779e-07 0.0111303)
(1.79518e-06 -1.06203e-06 0.0111294)
(1.18933e-06 -1.1893e-06 0.0111287)
(4.16072e-07 -1.25669e-06 0.0111283)
(-4.16057e-07 -1.25668e-06 0.0111283)
(-1.18931e-06 -1.1893e-06 0.0111287)
(-1.79515e-06 -1.06208e-06 0.0111294)
(-2.14145e-06 -8.87864e-07 0.0111303)
(-2.20565e-06 -6.78118e-07 0.0111312)
(2.02314e-06 -1.04644e-06 0.0111314)
(1.92682e-06 -1.35033e-06 0.0111307)
(1.60852e-06 -1.60847e-06 0.0111299)
(1.06207e-06 -1.79514e-06 0.0111294)
(3.70914e-07 -1.89383e-06 0.011129)
(-3.70885e-07 -1.89384e-06 0.011129)
(-1.06208e-06 -1.79516e-06 0.0111294)
(-1.60857e-06 -1.60858e-06 0.0111299)
(-1.92676e-06 -1.35049e-06 0.0111307)
(-2.02302e-06 -1.04652e-06 0.0111314)
(1.74478e-06 -1.28662e-06 0.0111314)
(1.63011e-06 -1.63014e-06 0.0111312)
(1.35037e-06 -1.92682e-06 0.0111307)
(8.87791e-07 -2.14146e-06 0.0111303)
(3.09234e-07 -2.25624e-06 0.01113)
(-3.09245e-07 -2.25624e-06 0.01113)
(-8.87873e-07 -2.14145e-06 0.0111303)
(-1.35048e-06 -1.92674e-06 0.0111307)
(-1.62999e-06 -1.63e-06 0.0111312)
(-1.74448e-06 -1.28656e-06 0.0111314)
(1.49512e-06 -1.49507e-06 0.0111299)
(1.28659e-06 -1.74468e-06 0.0111314)
(1.04658e-06 -2.02312e-06 0.0111314)
(6.78182e-07 -2.20566e-06 0.0111312)
(2.33706e-07 -2.30442e-06 0.011131)
(-2.33671e-07 -2.30442e-06 0.011131)
(-6.78098e-07 -2.20563e-06 0.0111312)
(-1.04651e-06 -2.02301e-06 0.0111314)
(-1.28658e-06 -1.74449e-06 0.0111314)
(-1.49499e-06 -1.49497e-06 0.0111299)
(5.38455e-07 5.38341e-07 0.0111296)
(4.65186e-07 6.32383e-07 0.0111314)
(3.80132e-07 7.36635e-07 0.0111316)
(2.46867e-07 8.05852e-07 0.0111316)
(8.51708e-08 8.43319e-07 0.0111315)
(-8.52159e-08 8.43311e-07 0.0111315)
(-2.46841e-07 8.05823e-07 0.0111316)
(-3.80066e-07 7.36614e-07 0.0111316)
(-4.65153e-07 6.32479e-07 0.0111314)
(-5.38362e-07 5.38566e-07 0.0111296)
(6.32367e-07 4.65145e-07 0.0111314)
(5.94486e-07 5.94447e-07 0.0111316)
(4.95275e-07 7.07281e-07 0.0111315)
(3.26797e-07 7.89694e-07 0.0111313)
(1.14027e-07 8.33941e-07 0.0111312)
(-1.1405e-07 8.3396e-07 0.0111312)
(-3.26801e-07 7.89728e-07 0.0111313)
(-4.95218e-07 7.07302e-07 0.0111315)
(-5.94386e-07 5.94516e-07 0.0111316)
(-6.32377e-07 4.65221e-07 0.0111314)
(7.36581e-07 3.80139e-07 0.0111316)
(7.07308e-07 4.95273e-07 0.0111315)
(5.94467e-07 5.94457e-07 0.0111312)
(3.94233e-07 6.66899e-07 0.011131)
(1.37989e-07 7.05459e-07 0.0111309)
(-1.37976e-07 7.0547e-07 0.0111309)
(-3.94201e-07 6.66941e-07 0.011131)
(-5.94363e-07 5.94486e-07 0.0111312)
(-7.0723e-07 4.95292e-07 0.0111315)
(-7.36658e-07 3.80111e-07 0.0111316)
(8.05834e-07 2.46898e-07 0.0111316)
(7.8971e-07 3.26821e-07 0.0111313)
(6.66903e-07 3.94236e-07 0.011131)
(4.44039e-07 4.44043e-07 0.0111307)
(1.55751e-07 4.70605e-07 0.0111306)
(-1.55717e-07 4.70611e-07 0.0111306)
(-4.44016e-07 4.44067e-07 0.0111307)
(-6.66861e-07 3.9424e-07 0.011131)
(-7.89664e-07 3.26761e-07 0.0111313)
(-8.05841e-07 2.46844e-07 0.0111316)
(8.43335e-07 8.518e-08 0.0111315)
(8.3394e-07 1.14027e-07 0.0111312)
(7.05452e-07 1.37989e-07 0.0111309)
(4.70602e-07 1.55756e-07 0.0111306)
(1.65209e-07 1.65213e-07 0.0111304)
(-1.65167e-07 1.65211e-07 0.0111304)
(-4.7057e-07 1.55759e-07 0.0111306)
(-7.05425e-07 1.38008e-07 0.0111309)
(-8.33912e-07 1.14034e-07 0.0111312)
(-8.43314e-07 8.51985e-08 0.0111315)
(8.43316e-07 -8.52164e-08 0.0111315)
(8.33964e-07 -1.14027e-07 0.0111312)
(7.05478e-07 -1.37955e-07 0.0111309)
(4.7061e-07 -1.55711e-07 0.0111306)
(1.65206e-07 -1.65165e-07 0.0111304)
(-1.6517e-07 -1.6517e-07 0.0111304)
(-4.70566e-07 -1.55722e-07 0.0111306)
(-7.05431e-07 -1.37967e-07 0.0111309)
(-8.3392e-07 -1.14042e-07 0.0111312)
(-8.43319e-07 -8.51834e-08 0.0111315)
(8.05859e-07 -2.46831e-07 0.0111316)
(7.89745e-07 -3.26739e-07 0.0111313)
(6.66918e-07 -3.94189e-07 0.011131)
(4.44044e-07 -4.44022e-07 0.0111307)
(1.5575e-07 -4.7057e-07 0.0111306)
(-1.55723e-07 -4.70573e-07 0.0111306)
(-4.44018e-07 -4.4403e-07 0.0111307)
(-6.66896e-07 -3.94211e-07 0.011131)
(-7.89676e-07 -3.26794e-07 0.0111313)
(-8.05822e-07 -2.46813e-07 0.0111316)
(7.3669e-07 -3.80054e-07 0.0111316)
(7.07313e-07 -4.95279e-07 0.0111315)
(5.94432e-07 -5.94445e-07 0.0111312)
(3.94228e-07 -6.66881e-07 0.011131)
(1.38002e-07 -7.05424e-07 0.0111309)
(-1.37979e-07 -7.05442e-07 0.0111309)
(-3.94204e-07 -6.66911e-07 0.011131)
(-5.94433e-07 -5.94443e-07 0.0111312)
(-7.07227e-07 -4.95271e-07 0.0111315)
(-7.36602e-07 -3.80082e-07 0.0111316)
(6.32391e-07 -4.65145e-07 0.0111314)
(5.94438e-07 -5.94472e-07 0.0111316)
(4.95307e-07 -7.07242e-07 0.0111315)
(3.26825e-07 -7.89644e-07 0.0111313)
(1.14035e-07 -8.33903e-07 0.0111312)
(-1.14061e-07 -8.33914e-07 0.0111312)
(-3.2678e-07 -7.89672e-07 0.0111313)
(-4.95257e-07 -7.0726e-07 0.0111315)
(-5.94406e-07 -5.94445e-07 0.0111316)
(-6.32359e-07 -4.65226e-07 0.0111314)
(5.38365e-07 -5.38365e-07 0.0111296)
(4.65195e-07 -6.32286e-07 0.0111314)
(3.80163e-07 -7.36557e-07 0.0111316)