/*--------------------------------*- C++ -*----------------------------------*\
| =========                 |                                                 |
| \\      /  F ield         | OpenFOAM: The Open Source CFD Toolbox           |
|  \\    /   O peration     | Version:  2412                                  |
|   \\  /    A nd           | Website:  www.openfoam.com                      |
|    \\/     M anipulation  |                                                 |
\*---------------------------------------------------------------------------*/
FoamFile
{
    version     2.0;
    format      ascii;
    arch        "LSB;label=32;scalar=64";
    class       surfaceScalarField;
    location    "8.5";
    object      phi;
}
// * * * * * * * * * * * * * * * * * * * * * * * * * * * * * * * * * * * * * //

dimensions      [0 3 -1 0 0 0 0];

oriented        oriented;

internalField   nonuniform List<scalar> 
43700
(
1.83906e-07
1.83906e-07
5.49892e-07
-2.23842e-07
-2.23842e-07
1.35983e-07
1.62966e-07
5.93646e-07
-1.99306e-07
9.00553e-08
1.49503e-07
6.24695e-07
-1.8884e-07
4.46905e-08
1.40559e-07
6.44641e-07
-1.80123e-07
2.69546e-16
1.36269e-07
6.54453e-07
-1.76103e-07
-4.46905e-08
1.36269e-07
6.54453e-07
-1.76103e-07
-9.00553e-08
1.40559e-07
6.44641e-07
-1.80123e-07
-1.35983e-07
1.49503e-07
6.24695e-07
-1.8884e-07
-1.83906e-07
1.62966e-07
5.93646e-07
-1.99306e-07
1.83906e-07
5.49892e-07
-2.23842e-07
-2.23842e-07
1.62966e-07
1.35983e-07
5.93646e-07
-1.99306e-07
1.21192e-07
1.21192e-07
6.29393e-07
7.98806e-08
1.10036e-07
6.54468e-07
3.95745e-08
1.02625e-07
6.70737e-07
1.93001e-16
9.90116e-08
6.78805e-07
-3.95745e-08
9.90116e-08
6.78805e-07
-7.98806e-08
1.02625e-07
6.70737e-07
-1.21192e-07
1.10036e-07
6.54468e-07
-1.62966e-07
1.21192e-07
6.29393e-07
1.35983e-07
5.93646e-07
-1.99306e-07
1.49503e-07
9.00553e-08
6.24695e-07
-1.8884e-07
1.10036e-07
7.98806e-08
6.54468e-07
7.21265e-08
7.21265e-08
6.75693e-07
3.5651e-08
6.69646e-08
6.89699e-07
1.59903e-16
6.44302e-08
6.9671e-07
-3.5651e-08
6.44302e-08
6.9671e-07
-7.21265e-08
6.69646e-08
6.89699e-07
-1.10036e-07
7.21265e-08
6.75693e-07
-1.49503e-07
7.98806e-08
6.54468e-07
9.00553e-08
6.24695e-07
-1.8884e-07
1.40559e-07
4.46905e-08
6.44641e-07
-1.80123e-07
1.02625e-07
3.95745e-08
6.70737e-07
6.69646e-08
3.5651e-08
6.89699e-07
3.30247e-08
3.30247e-08
7.02383e-07
-4.8388e-17
3.17293e-08
7.08768e-07
-3.30247e-08
3.17293e-08
7.08768e-07
-6.69646e-08
3.30247e-08
7.02383e-07
-1.02625e-07
3.5651e-08
6.89699e-07
-1.40559e-07
3.95745e-08
6.70737e-07
4.46905e-08
6.44641e-07
-1.80123e-07
1.36269e-07
4.1139e-16
6.54453e-07
-1.76103e-07
9.90116e-08
2.64717e-16
6.78805e-07
6.44302e-08
6.0501e-17
6.9671e-07
3.17293e-08
-2.09581e-17
7.08768e-07
-5.2912e-18
8.42443e-17
7.14851e-07
-3.17293e-08
2.01771e-17
7.14851e-07
-6.44302e-08
1.43466e-16
7.08768e-07
-9.90116e-08
3.42686e-16
6.9671e-07
-1.36269e-07
4.82928e-16
6.78805e-07
3.49806e-16
6.54453e-07
-1.76103e-07
1.36269e-07
-4.46905e-08
6.54453e-07
-1.76103e-07
9.90116e-08
-3.95745e-08
6.78805e-07
6.44302e-08
-3.5651e-08
6.9671e-07
3.17293e-08
-3.30247e-08
7.08768e-07
-1.37798e-16
-3.17293e-08
7.14851e-07
-3.17293e-08
-3.17293e-08
7.14851e-07
-6.44302e-08
-3.30247e-08
7.08768e-07
-9.90116e-08
-3.5651e-08
6.9671e-07
-1.36269e-07
-3.95745e-08
6.78805e-07
-4.46905e-08
6.54453e-07
-1.76103e-07
1.40559e-07
-9.00553e-08
6.44641e-07
-1.80123e-07
1.02625e-07
-7.98806e-08
6.70737e-07
6.69646e-08
-7.21265e-08
6.89699e-07
3.30247e-08
-6.69646e-08
7.02383e-07
3.97003e-16
-6.44302e-08
7.08768e-07
-3.30247e-08
-6.44302e-08
7.08768e-07
-6.69646e-08
-6.69646e-08
7.02383e-07
-1.02625e-07
-7.21265e-08
6.89699e-07
-1.40559e-07
-7.98806e-08
6.70737e-07
-9.00553e-08
6.44641e-07
-1.80123e-07
1.49503e-07
-1.35983e-07
6.24695e-07
-1.8884e-07
1.10036e-07
-1.21192e-07
6.54468e-07
7.21265e-08
-1.10036e-07
6.75693e-07
3.5651e-08
-1.02625e-07
6.89699e-07
3.81439e-16
-9.90116e-08
6.9671e-07
-3.5651e-08
-9.90116e-08
6.9671e-07
-7.21265e-08
-1.02625e-07
6.89699e-07
-1.10036e-07
-1.10036e-07
6.75693e-07
-1.49503e-07
-1.21192e-07
6.54468e-07
-1.35983e-07
6.24695e-07
-1.8884e-07
1.62966e-07
-1.83906e-07
5.93646e-07
-1.99306e-07
1.21192e-07
-1.62966e-07
6.29393e-07
7.98806e-08
-1.49503e-07
6.54468e-07
3.95745e-08
-1.40559e-07
6.70737e-07
1.95616e-16
-1.36269e-07
6.78805e-07
-3.95745e-08
-1.36269e-07
6.78805e-07
-7.98806e-08
-1.40559e-07
6.70737e-07
-1.21192e-07
-1.49503e-07
6.54468e-07
-1.62966e-07
-1.62966e-07
6.29393e-07
-1.83906e-07
5.93646e-07
-1.99306e-07
1.83906e-07
5.49892e-07
-2.23842e-07
-2.23842e-07
1.35983e-07
5.93646e-07
-1.99306e-07
9.00553e-08
6.24695e-07
-1.8884e-07
4.46905e-08
6.44641e-07
-1.80123e-07
8.1866e-17
6.54453e-07
-1.76103e-07
-4.46905e-08
6.54453e-07
-1.76103e-07
-9.00553e-08
6.44641e-07
-1.80123e-07
-1.35983e-07
6.24695e-07
-1.8884e-07
-1.83906e-07
5.93646e-07
-1.99306e-07
5.49892e-07
-2.23842e-07
-2.23842e-07
1.31811e-07
1.31811e-07
5.86782e-07
-1.50256e-07
-1.50256e-07
1.03945e-07
1.29594e-07
6.42999e-07
-1.51082e-07
7.10982e-08
1.26011e-07
6.81676e-07
-1.50145e-07
3.59168e-08
1.22517e-07
7.05588e-07
-1.48283e-07
3.91447e-16
1.20656e-07
7.17021e-07
-1.47307e-07
-3.59168e-08
1.20656e-07
7.17021e-07
-1.47307e-07
-7.10982e-08
1.22517e-07
7.05588e-07
-1.48283e-07
-1.03945e-07
1.26011e-07
6.81676e-07
-1.50145e-07
-1.31811e-07
1.29594e-07
6.42999e-07
-1.51082e-07
1.31811e-07
5.86782e-07
-1.50256e-07
-1.50256e-07
1.29594e-07
1.03945e-07
6.42999e-07
-1.51082e-07
1.00017e-07
1.00017e-07
6.88547e-07
6.73318e-08
9.54671e-08
7.17698e-07
3.37015e-08
9.17197e-08
7.35165e-07
2.69273e-16
8.97502e-08
7.43412e-07
-3.37015e-08
8.97502e-08
7.43412e-07
-6.73318e-08
9.17197e-08
7.35165e-07
-1.00017e-07
9.54671e-08
7.17698e-07
-1.29594e-07
1.00017e-07
6.88547e-07
1.03945e-07
6.42999e-07
-1.51082e-07
1.26011e-07
7.10982e-08
6.81676e-07
-1.50145e-07
9.54671e-08
6.73318e-08
7.17698e-07
6.34261e-08
6.34261e-08
7.39775e-07
3.15256e-08
6.04483e-08
7.52871e-07
1.66712e-16
5.89116e-08
7.59075e-07
-3.15256e-08
5.89116e-08
7.59075e-07
-6.34261e-08
6.04483e-08
7.52871e-07
-9.54671e-08
6.34261e-08
7.39775e-07
-1.26011e-07
6.73318e-08
7.17698e-07
7.10982e-08
6.81676e-07
-1.50145e-07
1.22517e-07
3.59168e-08
7.05588e-07
-1.48283e-07
9.17197e-08
3.37015e-08
7.35165e-07
6.04483e-08
3.15256e-08
7.52871e-07
2.99215e-08
2.99215e-08
7.63436e-07
-3.19146e-17
2.91022e-08
7.68499e-07
-2.99215e-08
2.91023e-08
7.68499e-07
-6.04483e-08
2.99215e-08
7.63436e-07
-9.17197e-08
3.15256e-08
7.52871e-07
-1.22517e-07
3.37015e-08
7.35165e-07
3.59168e-08
7.05588e-07
-1.48283e-07
1.20656e-07
2.01146e-16
7.17021e-07
-1.47307e-07
8.97502e-08
3.65428e-16
7.43412e-07
5.89116e-08
-1.08504e-16
7.59075e-07
2.91022e-08
-3.04675e-16
7.68499e-07
9.84183e-17
6.74814e-17
7.73056e-07
-2.91022e-08
8.07574e-17
7.73056e-07
-5.89116e-08
-6.54425e-17
7.68499e-07
-8.97502e-08
2.33025e-16
7.59075e-07
-1.20656e-07
3.65878e-16
7.43412e-07
3.72688e-16
7.17021e-07
-1.47307e-07
1.20656e-07
-3.59168e-08
7.17021e-07
-1.47307e-07
8.97502e-08
-3.37015e-08
7.43412e-07
5.89116e-08
-3.15256e-08
7.59075e-07
2.91023e-08
-2.99215e-08
7.68499e-07
1.16469e-16
-2.91022e-08
7.73056e-07
-2.91023e-08
-2.91022e-08
7.73056e-07
-5.89116e-08
-2.99215e-08
7.68499e-07
-8.97502e-08
-3.15256e-08
7.59075e-07
-1.20656e-07
-3.37015e-08
7.43412e-07
-3.59168e-08
7.17021e-07
-1.47307e-07
1.22517e-07
-7.10982e-08
7.05588e-07
-1.48283e-07
9.17197e-08
-6.73318e-08
7.35165e-07
6.04483e-08
-6.34261e-08
7.52871e-07
2.99215e-08
-6.04483e-08
7.63436e-07
2.58764e-16
-5.89116e-08
7.68499e-07
-2.99215e-08
-5.89116e-08
7.68499e-07
-6.04483e-08
-6.04483e-08
7.63436e-07
-9.17197e-08
-6.34261e-08
7.52871e-07
-1.22517e-07
-6.73318e-08
7.35165e-07
-7.10982e-08
7.05588e-07
-1.48283e-07
1.26011e-07
-1.03945e-07
6.81676e-07
-1.50145e-07
9.54671e-08
-1.00017e-07
7.17698e-07
6.34261e-08
-9.54671e-08
7.39775e-07
3.15256e-08
-9.17197e-08
7.52871e-07
2.69677e-17
-8.97502e-08
7.59075e-07
-3.15256e-08
-8.97502e-08
7.59075e-07
-6.34261e-08
-9.17197e-08
7.52871e-07
-9.54671e-08
-9.54671e-08
7.39775e-07
-1.26011e-07
-1.00017e-07
7.17698e-07
-1.03945e-07
6.81676e-07
-1.50145e-07
1.29594e-07
-1.31811e-07
6.42999e-07
-1.51082e-07
1.00017e-07
-1.29594e-07
6.88547e-07
6.73318e-08
-1.26011e-07
7.17698e-07
3.37015e-08
-1.22517e-07
7.35165e-07
-2.77751e-17
-1.20656e-07
7.43412e-07
-3.37015e-08
-1.20656e-07
7.43412e-07
-6.73318e-08
-1.22517e-07
7.35165e-07
-1.00017e-07
-1.26011e-07
7.17698e-07
-1.29594e-07
-1.29594e-07
6.88547e-07
-1.31811e-07
6.42999e-07
-1.51082e-07
1.31811e-07
5.86782e-07
-1.50256e-07
-1.50256e-07
1.03945e-07
6.42999e-07
-1.51082e-07
7.10982e-08
6.81676e-07
-1.50145e-07
3.59168e-08
7.05588e-07
-1.48283e-07
3.96979e-16
7.17021e-07
-1.47307e-07
-3.59168e-08
7.17021e-07
-1.47307e-07
-7.10982e-08
7.05588e-07
-1.48283e-07
-1.03945e-07
6.81676e-07
-1.50145e-07
-1.31811e-07
6.42999e-07
-1.51082e-07
5.86782e-07
-1.50256e-07
-1.50256e-07
1.04774e-07
1.04774e-07
5.9682e-07
-1.09793e-07
-1.09793e-07
8.80314e-08
1.10895e-07
6.66955e-07
-1.18109e-07
6.27666e-08
1.13288e-07
7.15968e-07
-1.22314e-07
3.25108e-08
1.13601e-07
7.46412e-07
-1.24169e-07
8.20942e-17
1.13479e-07
7.60932e-07
-1.24879e-07
-3.25108e-08
1.13479e-07
7.60932e-07
-1.24879e-07
-6.27666e-08
1.13601e-07
7.46412e-07
-1.24169e-07
-8.80314e-08
1.13288e-07
7.15968e-07
-1.22314e-07
-1.04774e-07
1.10895e-07
6.66955e-07
-1.18109e-07
1.04774e-07
5.9682e-07
-1.09793e-07
-1.09793e-07
1.10895e-07
8.80314e-08
6.66955e-07
-1.18109e-07
9.13864e-08
9.13864e-08
7.27565e-07
6.43e-08
9.19263e-08
7.66145e-07
3.30295e-08
9.12303e-08
7.88806e-07
1.17991e-17
9.06313e-08
7.99289e-07
-3.30295e-08
9.06313e-08
7.99289e-07
-6.43e-08
9.12303e-08
7.88806e-07
-9.13864e-08
9.19263e-08
7.66145e-07
-1.10895e-07
9.13864e-08
7.27565e-07
8.80314e-08
6.66955e-07
-1.18109e-07
1.13288e-07
6.27666e-08
7.15968e-07
-1.22314e-07
9.19263e-08
6.43e-08
7.66145e-07
6.39363e-08
6.39363e-08
7.95755e-07
3.26325e-08
6.29964e-08
8.12409e-07
-1.79806e-16
6.23584e-08
8.1998e-07
-3.26325e-08
6.23584e-08
8.1998e-07
-6.39363e-08
6.29964e-08
8.12409e-07
-9.19263e-08
6.39363e-08
7.95755e-07
-1.13288e-07
6.43e-08
7.66145e-07
6.27666e-08
7.15968e-07
-1.22314e-07
1.13601e-07
3.25108e-08
7.46412e-07
-1.24169e-07
9.12303e-08
3.30295e-08
7.88806e-07
6.29964e-08
3.26325e-08
8.12409e-07
3.20321e-08
3.20321e-08
8.25365e-07
-3.27234e-17
3.16513e-08
8.31238e-07
-3.20321e-08
3.16513e-08
8.31238e-07
-6.29964e-08
3.20321e-08
8.25365e-07
-9.12303e-08
3.26325e-08
8.12409e-07
-1.13601e-07
3.30295e-08
7.88806e-07
3.25108e-08
7.46412e-07
-1.24169e-07
1.13479e-07
3.80244e-16
7.60932e-07
-1.24879e-07
9.06313e-08
5.54321e-16
7.99289e-07
6.23584e-08
-6.95002e-17
8.1998e-07
3.16513e-08
-2.09655e-16
8.31238e-07
2.75926e-16
3.99792e-16
8.36358e-07
-3.16513e-08
5.32e-16
8.36358e-07
-6.23584e-08
1.82556e-16
8.31238e-07
-9.06313e-08
3.71448e-16
8.1998e-07
-1.13479e-07
4.79546e-16
7.99289e-07
4.44344e-16
7.60932e-07
-1.24879e-07
1.13479e-07
-3.25108e-08
7.60932e-07
-1.24879e-07
9.06313e-08
-3.30295e-08
7.99289e-07
6.23584e-08
-3.26325e-08
8.1998e-07
3.16513e-08
-3.20321e-08
8.31238e-07
3.38719e-16
-3.16513e-08
8.36358e-07
-3.16513e-08
-3.16513e-08
8.36358e-07
-6.23584e-08
-3.20321e-08
8.31238e-07
-9.06313e-08
-3.26325e-08
8.1998e-07
-1.13479e-07
-3.30295e-08
7.99289e-07
-3.25108e-08
7.60932e-07
-1.24879e-07
1.13601e-07
-6.27666e-08
7.46412e-07
-1.24169e-07
9.12303e-08
-6.43e-08
7.88806e-07
6.29964e-08
-6.39363e-08
8.12409e-07
3.20321e-08
-6.29964e-08
8.25365e-07
7.20148e-16
-6.23584e-08
8.31238e-07
-3.20321e-08
-6.23584e-08
8.31238e-07
-6.29964e-08
-6.29964e-08
8.25365e-07
-9.12303e-08
-6.39363e-08
8.12409e-07
-1.13601e-07
-6.43e-08
7.88806e-07
-6.27666e-08
7.46412e-07
-1.24169e-07
1.13288e-07
-8.80314e-08
7.15968e-07
-1.22314e-07
9.19263e-08
-9.13864e-08
7.66145e-07
6.39363e-08
-9.19263e-08
7.95755e-07
3.26325e-08
-9.12303e-08
8.12409e-07
5.5373e-16
-9.06313e-08
8.1998e-07
-3.26325e-08
-9.06313e-08
8.1998e-07
-6.39363e-08
-9.12303e-08
8.12409e-07
-9.19263e-08
-9.19263e-08
7.95755e-07
-1.13288e-07
-9.13864e-08
7.66145e-07
-8.80314e-08
7.15968e-07
-1.22314e-07
1.10895e-07
-1.04774e-07
6.66955e-07
-1.18109e-07
9.13864e-08
-1.10895e-07
7.27565e-07
6.43e-08
-1.13288e-07
7.66145e-07
3.30295e-08
-1.13601e-07
7.88806e-07
2.28078e-16
-1.13479e-07
7.99289e-07
-3.30295e-08
-1.13479e-07
7.99289e-07
-6.43e-08
-1.13601e-07
7.88806e-07
-9.13864e-08
-1.13288e-07
7.66145e-07
-1.10895e-07
-1.10895e-07
7.27565e-07
-1.04774e-07
6.66955e-07
-1.18109e-07
1.04774e-07
5.9682e-07
-1.09793e-07
-1.09793e-07
8.80314e-08
6.66955e-07
-1.18109e-07
6.27666e-08
7.15968e-07
-1.22314e-07
3.25108e-08
7.46412e-07
-1.24169e-07
3.44437e-16
7.60932e-07
-1.24879e-07
-3.25108e-08
7.60932e-07
-1.24879e-07
-6.27666e-08
7.46412e-07
-1.24169e-07
-8.80314e-08
7.15968e-07
-1.22314e-07
-1.04774e-07
6.66955e-07
-1.18109e-07
5.9682e-07
-1.09793e-07
-1.09793e-07
5.55944e-08
5.55944e-08
5.95925e-07
-5.51466e-08
-5.51466e-08
4.90428e-08
6.32238e-08
6.73461e-07
-6.31776e-08
3.61527e-08
6.78736e-08
7.29001e-07
-6.8017e-08
1.91215e-08
7.03406e-08
7.64064e-07
-7.09613e-08
3.76962e-16
7.13893e-08
7.80925e-07
-7.2261e-08
-1.91215e-08
7.13893e-08
7.80925e-07
-7.2261e-08
-3.61527e-08
7.03406e-08
7.64064e-07
-7.09613e-08
-4.90428e-08
6.78736e-08
7.29001e-07
-6.8017e-08
-5.55944e-08
6.32238e-08
6.73461e-07
-6.31776e-08
5.55944e-08
5.95925e-07
-5.51466e-08
-5.51466e-08
6.32238e-08
4.90428e-08
6.73461e-07
-6.31776e-08
5.48636e-08
5.48636e-08
7.44285e-07
4.00266e-08
5.82795e-08
7.90577e-07
2.10181e-08
5.99557e-08
8.18199e-07
6.90424e-16
6.06224e-08
8.31074e-07
-2.10181e-08
6.06224e-08
8.31074e-07
-4.00266e-08
5.99557e-08
8.18199e-07
-5.48636e-08
5.82795e-08
7.90577e-07
-6.32238e-08
5.48636e-08
7.44285e-07
4.90428e-08
6.73461e-07
-6.31776e-08
6.78736e-08
3.61527e-08
7.29001e-07
-6.8017e-08
5.82795e-08
4.00266e-08
7.90577e-07
4.21558e-08
4.21558e-08
8.28002e-07
2.2023e-08
4.31375e-08
8.4936e-07
6.52382e-16
4.35028e-08
8.59123e-07
-2.2023e-08
4.35028e-08
8.59123e-07
-4.21558e-08
4.31375e-08
8.4936e-07
-5.82795e-08
4.21558e-08
8.28002e-07
-6.78736e-08
4.00266e-08
7.90577e-07
3.61527e-08
7.29001e-07
-6.8017e-08
7.03406e-08
1.91215e-08
7.64064e-07
-7.09613e-08
5.99557e-08
2.10181e-08
8.18199e-07
4.31375e-08
2.2023e-08
8.4936e-07
2.24721e-08
2.24721e-08
8.66696e-07
7.30634e-16
2.26326e-08
8.7458e-07
-2.24721e-08
2.26326e-08
8.7458e-07
-4.31375e-08
2.24721e-08
8.66696e-07
-5.99557e-08
2.2023e-08
8.4936e-07
-7.03406e-08
2.10181e-08
8.18199e-07
1.91215e-08
7.64064e-07
-7.09613e-08
7.13893e-08
5.3041e-16
7.80925e-07
-7.2261e-08
6.06224e-08
9.94689e-16
8.31074e-07
4.35028e-08
5.46734e-16
8.59123e-07
2.26326e-08
4.94474e-16
8.7458e-07
7.21372e-16
7.61075e-16
8.81623e-07
-2.26326e-08
7.29986e-16
8.81623e-07
-4.35028e-08
2.16099e-16
8.7458e-07
-6.06224e-08
1.87982e-16
8.59123e-07
-7.13893e-08
1.07913e-16
8.31074e-07
2.05606e-16
7.80925e-07
-7.2261e-08
7.13893e-08
-1.91215e-08
7.80925e-07
-7.2261e-08
6.06224e-08
-2.10181e-08
8.31074e-07
4.35028e-08
-2.2023e-08
8.59123e-07
2.26326e-08
-2.24721e-08
8.7458e-07
5.47561e-16
-2.26326e-08
8.81623e-07
-2.26326e-08
-2.26326e-08
8.81623e-07
-4.35028e-08
-2.24721e-08
8.7458e-07
-6.06224e-08
-2.2023e-08
8.59123e-07
-7.13893e-08
-2.10181e-08
8.31074e-07
-1.91215e-08
7.80925e-07
-7.2261e-08
7.03406e-08
-3.61527e-08
7.64064e-07
-7.09613e-08
5.99557e-08
-4.00266e-08
8.18199e-07
4.31375e-08
-4.21558e-08
8.4936e-07
2.24721e-08
-4.31375e-08
8.66696e-07
7.58176e-16
-4.35028e-08
8.7458e-07
-2.24721e-08
-4.35028e-08
8.7458e-07
-4.31375e-08
-4.31375e-08
8.66696e-07
-5.99557e-08
-4.21558e-08
8.4936e-07
-7.03406e-08
-4.00266e-08
8.18199e-07
-3.61527e-08
7.64064e-07
-7.09612e-08
6.78736e-08
-4.90428e-08
7.29001e-07
-6.8017e-08
5.82795e-08
-5.48636e-08
7.90577e-07
4.21558e-08
-5.82795e-08
8.28002e-07
2.2023e-08
-5.99557e-08
8.4936e-07
5.3042e-16
-6.06224e-08
8.59123e-07
-2.2023e-08
-6.06224e-08
8.59123e-07
-4.21558e-08
-5.99557e-08
8.4936e-07
-5.82795e-08
-5.82795e-08
8.28002e-07
-6.78736e-08
-5.48636e-08
7.90577e-07
-4.90428e-08
7.29001e-07
-6.8017e-08
6.32238e-08
-5.55944e-08
6.73461e-07
-6.31776e-08
5.48636e-08
-6.32238e-08
7.44285e-07
4.00266e-08
-6.78736e-08
7.90577e-07
2.10181e-08
-7.03406e-08
8.18199e-07
-2.38507e-16
-7.13893e-08
8.31074e-07
-2.10181e-08
-7.13893e-08
8.31074e-07
-4.00266e-08
-7.03406e-08
8.18199e-07
-5.48636e-08
-6.78736e-08
7.90577e-07
-6.32238e-08
-6.32238e-08
7.44285e-07
-5.55944e-08
6.73461e-07
-6.31776e-08
5.55944e-08
5.95925e-07
-5.51466e-08
-5.51466e-08
4.90428e-08
6.73461e-07
-6.31776e-08
3.61527e-08
7.29001e-07
-6.8017e-08
1.91215e-08
7.64064e-07
-7.09612e-08
-4.00656e-17
7.80925e-07
-7.2261e-08
-1.91215e-08
7.80925e-07
-7.2261e-08
-3.61527e-08
7.64064e-07
-7.09612e-08
-4.90428e-08
7.29001e-07
-6.8017e-08
-5.55944e-08
6.73461e-07
-6.31776e-08
5.95925e-07
-5.51466e-08
-5.51466e-08
2.95621e-08
2.95621e-08
5.93017e-07
-2.81082e-08
-2.81082e-08
2.68239e-08
3.47618e-08
6.7432e-07
-3.28827e-08
2.02205e-08
3.83895e-08
7.33469e-07
-3.62543e-08
1.08446e-08
4.05942e-08
7.71269e-07
-3.84239e-08
3.14363e-16
4.16081e-08
7.89581e-07
-3.942e-08
-1.08446e-08
4.16081e-08
7.89581e-07
-3.942e-08
-2.02205e-08
4.05942e-08
7.71269e-07
-3.84239e-08
-2.68239e-08
3.83895e-08
7.33469e-07
-3.62543e-08
-2.95621e-08
3.47618e-08
6.7432e-07
-3.28827e-08
2.95621e-08
5.93017e-07
-2.81082e-08
-2.81082e-08
3.47618e-08
2.68239e-08
6.7432e-07
-3.28827e-08
3.13604e-08
3.13604e-08
7.51088e-07
2.35151e-08
3.44654e-08
8.02346e-07
1.25566e-08
3.62877e-08
8.33464e-07
6.23616e-16
3.71139e-08
8.48125e-07
-1.25566e-08
3.71139e-08
8.48125e-07
-2.35151e-08
3.62877e-08
8.33464e-07
-3.13604e-08
3.44654e-08
8.02346e-07
-3.47618e-08
3.13604e-08
7.51088e-07
2.68239e-08
6.7432e-07
-3.28827e-08
3.83895e-08
2.02205e-08
7.33469e-07
-3.62543e-08
3.44654e-08
2.35151e-08
8.02346e-07
2.57217e-08
2.57217e-08
8.45489e-07
1.36895e-08
2.69894e-08
8.7069e-07
5.14078e-16
2.75549e-08
8.82371e-07
-1.36895e-08
2.75549e-08
8.82371e-07
-2.57217e-08
2.69894e-08
8.7069e-07
-3.44654e-08
2.57217e-08
8.45489e-07
-3.83895e-08
2.35151e-08
8.02346e-07
2.02205e-08
7.33469e-07
-3.62543e-08
4.05942e-08
1.08446e-08
7.71269e-07
-3.84239e-08
3.62877e-08
1.25566e-08
8.33464e-07
2.69894e-08
1.36895e-08
8.7069e-07
1.43354e-08
1.43354e-08
8.92004e-07
5.61265e-16
1.46211e-08
9.01849e-07
-1.43354e-08
1.46211e-08
9.01849e-07
-2.69894e-08
1.43354e-08
8.92004e-07
-3.62877e-08
1.36895e-08
8.7069e-07
-4.05942e-08
1.25566e-08
8.33464e-07
1.08446e-08
7.71269e-07
-3.84239e-08
4.16081e-08
9.90043e-16
7.89581e-07
-3.942e-08
3.71139e-08
1.19961e-15
8.48125e-07
2.75549e-08
7.53621e-16
8.82371e-07
1.46211e-08
5.76987e-16
9.01849e-07
6.60035e-16
7.4704e-16
9.10865e-07
-1.46211e-08
1.14168e-15
9.10865e-07
-2.75549e-08
1.13977e-15
9.01849e-07
-3.71139e-08
9.11592e-16
8.82371e-07
-4.16081e-08
5.21721e-16
8.48125e-07
4.8668e-16
7.89581e-07
-3.942e-08
4.16081e-08
-1.08446e-08
7.89581e-07
-3.942e-08
3.71139e-08
-1.25566e-08
8.48125e-07
2.75549e-08
-1.36895e-08
8.82371e-07
1.46211e-08
-1.43354e-08
9.01849e-07
9.35036e-16
-1.46211e-08
9.10865e-07
-1.46211e-08
-1.46211e-08
9.10865e-07
-2.75549e-08
-1.43354e-08
9.01849e-07
-3.71139e-08
-1.36895e-08
8.82371e-07
-4.16081e-08
-1.25566e-08
8.48125e-07
-1.08446e-08
7.89581e-07
-3.942e-08
4.05942e-08
-2.02205e-08
7.71269e-07
-3.84239e-08
3.62877e-08
-2.35151e-08
8.33464e-07
2.69894e-08
-2.57217e-08
8.7069e-07
1.43354e-08
-2.69894e-08
8.92004e-07
1.32185e-15
-2.75549e-08
9.01849e-07
-1.43354e-08
-2.75549e-08
9.01849e-07
-2.69894e-08
-2.69894e-08
8.92004e-07
-3.62877e-08
-2.57217e-08
8.7069e-07
-4.05942e-08
-2.35151e-08
8.33464e-07
-2.02205e-08
7.71269e-07
-3.84239e-08
3.83895e-08
-2.68239e-08
7.33469e-07
-3.62543e-08
3.44654e-08
-3.13604e-08
8.02346e-07
2.57217e-08
-3.44654e-08
8.45489e-07
1.36895e-08
-3.62877e-08
8.7069e-07
1.05602e-15
-3.71139e-08
8.82371e-07
-1.36895e-08
-3.71139e-08
8.82371e-07
-2.57217e-08
-3.62877e-08
8.7069e-07
-3.44654e-08
-3.44654e-08
8.45489e-07
-3.83895e-08
-3.13604e-08
8.02346e-07
-2.68239e-08
7.33469e-07
-3.62543e-08
3.47618e-08
-2.95621e-08
6.7432e-07
-3.28827e-08
3.13604e-08
-3.47618e-08
7.51088e-07
2.35151e-08
-3.83895e-08
8.02346e-07
1.25566e-08
-4.05942e-08
8.33464e-07
2.08864e-16
-4.16081e-08
8.48125e-07
-1.25566e-08
-4.16081e-08
8.48125e-07
-2.35151e-08
-4.05942e-08
8.33464e-07
-3.13604e-08
-3.83895e-08
8.02346e-07
-3.47618e-08
-3.47618e-08
7.51088e-07
-2.95621e-08
6.7432e-07
-3.28827e-08
2.95621e-08
5.93017e-07
-2.81082e-08
-2.81082e-08
2.6824e-08
6.7432e-07
-3.28827e-08
2.02205e-08
7.33469e-07
-3.62543e-08
1.08446e-08
7.71269e-07
-3.84239e-08
3.2067e-16
7.89581e-07
-3.942e-08
-1.08446e-08
7.89581e-07
-3.942e-08
-2.02205e-08
7.71269e-07
-3.84239e-08
-2.68239e-08
7.33469e-07
-3.62543e-08
-2.95621e-08
6.7432e-07
-3.28827e-08
5.93017e-07
-2.81082e-08
-2.81082e-08
1.28492e-08
1.28492e-08
5.90337e-07
-1.1509e-08
-1.1509e-08
1.22207e-08
1.60505e-08
6.72999e-07
-1.41018e-08
9.53108e-09
1.85329e-08
7.33748e-07
-1.6122e-08
5.21807e-09
2.0186e-08
7.72911e-07
-1.75143e-08
2.8075e-16
2.09894e-08
7.91992e-07
-1.81824e-08
-5.21806e-09
2.09894e-08
7.91992e-07
-1.81824e-08
-9.53108e-09
2.0186e-08
7.72911e-07
-1.75143e-08
-1.22207e-08
1.85329e-08
7.33748e-07
-1.6122e-08
-1.28492e-08
1.60505e-08
6.72999e-07
-1.41018e-08
1.28492e-08
5.90337e-07
-1.1509e-08
-1.1509e-08
1.60505e-08
1.22207e-08
6.72999e-07
-1.41018e-08
1.53073e-08
1.53073e-08
7.52575e-07
1.19281e-08
1.76766e-08
8.06582e-07
6.51625e-09
1.9216e-08
8.39846e-07
6.78015e-16
1.996e-08
8.5567e-07
-6.51625e-09
1.996e-08
8.5567e-07
-1.19281e-08
1.9216e-08
8.39846e-07
-1.53073e-08
1.76766e-08
8.06582e-07
-1.60505e-08
1.53073e-08
7.52575e-07
1.22207e-08
6.72999e-07
-1.41018e-08
1.85329e-08
9.53108e-09
7.33748e-07
-1.6122e-08
1.76766e-08
1.19281e-08
8.06582e-07
1.37446e-08
1.37446e-08
8.53353e-07
7.49064e-09
1.49046e-08
8.81256e-07
7.26825e-16
1.54591e-08
8.94363e-07
-7.49064e-09
1.54591e-08
8.94363e-07
-1.37446e-08
1.49046e-08
8.81256e-07
-1.76766e-08
1.37446e-08
8.53353e-07
-1.85329e-08
1.19281e-08
8.06582e-07
9.53108e-09
7.33748e-07
-1.6122e-08
2.0186e-08
5.21807e-09
7.72911e-07
-1.75143e-08
1.9216e-08
6.51625e-09
8.39846e-07
1.49046e-08
7.49064e-09
8.81256e-07
8.10774e-09
8.10774e-09
9.05597e-07
7.39615e-16
8.40055e-09
9.17016e-07
-8.10774e-09
8.40055e-09
9.17016e-07
-1.49046e-08
8.10774e-09
9.05597e-07
-1.9216e-08
7.49064e-09
8.81256e-07
-2.0186e-08
6.51625e-09
8.39846e-07
5.21807e-09
7.72911e-07
-1.75143e-08
2.09894e-08
7.18669e-16
7.91992e-07
-1.81824e-08
1.996e-08
7.21891e-16
8.5567e-07
1.54591e-08
6.84145e-16
8.94363e-07
8.40055e-09
7.18659e-16
9.17016e-07
7.47367e-16
8.31652e-16
9.27667e-07
-8.40055e-09
9.70287e-16
9.27667e-07
-1.54591e-08
9.56811e-16
9.17016e-07
-1.996e-08
6.51563e-16
8.94363e-07
-2.09894e-08
4.29645e-16
8.5567e-07
4.90115e-16
7.91992e-07
-1.81824e-08
2.09894e-08
-5.21806e-09
7.91992e-07
-1.81824e-08
1.996e-08
-6.51625e-09
8.5567e-07
1.54591e-08
-7.49064e-09
8.94363e-07
8.40055e-09
-8.10774e-09
9.17016e-07
8.19254e-16
-8.40055e-09
9.27667e-07
-8.40055e-09
-8.40055e-09
9.27667e-07
-1.54591e-08
-8.10774e-09
9.17016e-07
-1.996e-08
-7.49064e-09
8.94363e-07
-2.09894e-08
-6.51625e-09
8.5567e-07
-5.21807e-09
7.91992e-07
-1.81824e-08
2.0186e-08
-9.53108e-09
7.72911e-07
-1.75143e-08
1.9216e-08
-1.19281e-08
8.39846e-07
1.49046e-08
-1.37446e-08
8.81256e-07
8.10774e-09
-1.49046e-08
9.05597e-07
9.85056e-16
-1.54591e-08
9.17016e-07
-8.10774e-09
-1.54591e-08
9.17016e-07
-1.49046e-08
-1.49046e-08
9.05597e-07
-1.9216e-08
-1.37446e-08
8.81256e-07
-2.0186e-08
-1.19281e-08
8.39846e-07
-9.53108e-09
7.72911e-07
-1.75143e-08
1.85329e-08
-1.22207e-08
7.33748e-07
-1.6122e-08
1.76766e-08
-1.53073e-08
8.06582e-07
1.37446e-08
-1.76766e-08
8.53353e-07
7.49064e-09
-1.9216e-08
8.81256e-07
7.85623e-16
-1.996e-08
8.94363e-07
-7.49064e-09
-1.996e-08
8.94363e-07
-1.37446e-08
-1.9216e-08
8.81256e-07
-1.76766e-08
-1.76766e-08
8.53353e-07
-1.85329e-08
-1.53073e-08
8.06582e-07
-1.22207e-08
7.33748e-07
-1.6122e-08
1.60505e-08
-1.28492e-08
6.72999e-07
-1.41018e-08
1.53073e-08
-1.60505e-08
7.52575e-07
1.19281e-08
-1.85329e-08
8.06582e-07
6.51625e-09
-2.0186e-08
8.39846e-07
1.42302e-16
-2.09894e-08
8.5567e-07
-6.51625e-09
-2.09894e-08
8.5567e-07
-1.19281e-08
-2.0186e-08
8.39846e-07
-1.53073e-08
-1.85329e-08
8.06582e-07
-1.60505e-08
-1.60505e-08
7.52575e-07
-1.28492e-08
6.72999e-07
-1.41018e-08
1.28492e-08
5.90337e-07
-1.1509e-08
-1.1509e-08
1.22207e-08
6.72999e-07
-1.41018e-08
9.53108e-09
7.33748e-07
-1.6122e-08
5.21806e-09
7.72911e-07
-1.75143e-08
1.66214e-16
7.91992e-07
-1.81824e-08
-5.21807e-09
7.91992e-07
-1.81824e-08
-9.53108e-09
7.72911e-07
-1.75143e-08
-1.22207e-08
7.33748e-07
-1.6122e-08
-1.28492e-08
6.72999e-07
-1.41018e-08
5.90337e-07
-1.1509e-08
-1.1509e-08
4.73824e-09
4.73824e-09
5.88791e-07
-3.96533e-09
-3.96534e-09
4.74731e-09
6.32935e-09
6.71767e-07
-5.10548e-09
3.84139e-09
7.68109e-09
7.33052e-07
-6.0787e-09
2.14985e-09
8.64657e-09
7.72748e-07
-6.79262e-09
3.33116e-16
9.13456e-09
7.92155e-07
-7.14735e-09
-2.14985e-09
9.13456e-09
7.92155e-07
-7.14735e-09
-3.84139e-09
8.64657e-09
7.72748e-07
-6.79262e-09
-4.74731e-09
7.68109e-09
7.33052e-07
-6.0787e-09
-4.73824e-09
6.32935e-09
6.71767e-07
-5.10548e-09
4.73824e-09
5.88791e-07
-3.96533e-09
-3.96534e-09
6.32935e-09
4.74731e-09
6.71767e-07
-5.10548e-09
6.42454e-09
6.42454e-09
7.52384e-07
5.22159e-09
7.83546e-09
8.0763e-07
2.92285e-09
8.81973e-09
8.41971e-07
4.51163e-16
9.31483e-09
8.58413e-07
-2.92285e-09
9.31483e-09
8.58413e-07
-5.22159e-09
8.81973e-09
8.41971e-07
-6.42453e-09
7.83546e-09
8.0763e-07
-6.32935e-09
6.42454e-09
7.52384e-07
4.74731e-09
6.71767e-07
-5.10548e-09
7.68109e-09
3.84139e-09
7.33052e-07
-6.0787e-09
7.83546e-09
5.22159e-09
8.0763e-07
6.36663e-09
6.36663e-09
8.56291e-07
3.55683e-09
7.15061e-09
8.85734e-07
4.61863e-16
7.54062e-09
8.99694e-07
-3.55683e-09
7.54062e-09
8.99694e-07
-6.36663e-09
7.15061e-09
8.85734e-07
-7.83546e-09
6.36663e-09
8.56291e-07
-7.68109e-09
5.22159e-09
8.0763e-07
3.84139e-09
7.33052e-07
-6.0787e-09
8.64657e-09
2.14985e-09
7.72748e-07
-6.79262e-09
8.81973e-09
2.92285e-09
8.41971e-07
7.15061e-09
3.55683e-09
8.85734e-07
3.98624e-09
3.98624e-09
9.11926e-07
6.1672e-16
4.19819e-09
9.24344e-07
-3.98624e-09
4.19819e-09
9.24344e-07
-7.15061e-09
3.98624e-09
9.11926e-07
-8.81973e-09
3.55683e-09
8.85734e-07
-8.64657e-09
2.92285e-09
8.41971e-07
2.14985e-09
7.72748e-07
-6.79262e-09
9.13456e-09
5.02425e-16
7.92155e-07
-7.14735e-09
9.31483e-09
4.65271e-16
8.58413e-07
7.54062e-09
4.79835e-16
8.99694e-07
4.19819e-09
6.28395e-16
9.24344e-07
6.83382e-16
7.8183e-16
9.36063e-07
-4.19819e-09
9.66482e-16
9.36063e-07
-7.54062e-09
1.17471e-15
9.24344e-07
-9.31483e-09
7.84096e-16
8.99694e-07
-9.13456e-09
5.43098e-16
8.58413e-07
5.41108e-16
7.92155e-07
-7.14735e-09
9.13456e-09
-2.14985e-09
7.92155e-07
-7.14735e-09
9.31483e-09
-2.92285e-09
8.58413e-07
7.54062e-09
-3.55683e-09
8.99694e-07
4.19819e-09
-3.98624e-09
9.24344e-07
8.50627e-16
-4.19819e-09
9.36063e-07
-4.19819e-09
-4.19819e-09
9.36063e-07
-7.54062e-09
-3.98624e-09
9.24344e-07
-9.31483e-09
-3.55683e-09
8.99694e-07
-9.13456e-09
-2.92285e-09
8.58413e-07
-2.14985e-09
7.92155e-07
-7.14735e-09
8.64657e-09
-3.84139e-09
7.72748e-07
-6.79262e-09
8.81973e-09
-5.22159e-09
8.41971e-07
7.15061e-09
-6.36663e-09
8.85734e-07
3.98624e-09
-7.15061e-09
9.11926e-07
9.45274e-16
-7.54062e-09
9.24344e-07
-3.98624e-09
-7.54062e-09
9.24344e-07
-7.15061e-09
-7.15061e-09
9.11926e-07
-8.81973e-09
-6.36663e-09
8.85734e-07
-8.64657e-09
-5.22159e-09
8.41971e-07
-3.84139e-09
7.72748e-07
-6.79262e-09
7.68109e-09
-4.74731e-09
7.33052e-07
-6.0787e-09
7.83546e-09
-6.42454e-09
8.0763e-07
6.36663e-09
-7.83546e-09
8.56291e-07
3.55683e-09
-8.81973e-09
8.85734e-07
6.88296e-16
-9.31483e-09
8.99694e-07
-3.55683e-09
-9.31483e-09
8.99694e-07
-6.36663e-09
-8.81973e-09
8.85734e-07
-7.83546e-09
-7.83546e-09
8.56291e-07
-7.68108e-09
-6.42453e-09
8.0763e-07
-4.74731e-09
7.33052e-07
-6.0787e-09
6.32935e-09
-4.73824e-09
6.71767e-07
-5.10548e-09
6.42453e-09
-6.32935e-09
7.52384e-07
5.22159e-09
-7.68108e-09
8.0763e-07
2.92285e-09
-8.64657e-09
8.41971e-07
1.84705e-16
-9.13456e-09
8.58413e-07
-2.92285e-09
-9.13456e-09
8.58413e-07
-5.22159e-09
-8.64657e-09
8.41971e-07
-6.42453e-09
-7.68108e-09
8.0763e-07
-6.32935e-09
-6.32935e-09
7.52384e-07
-4.73824e-09
6.71767e-07
-5.10548e-09
4.73824e-09
5.88791e-07
-3.96534e-09
-3.96534e-09
4.74731e-09
6.71767e-07
-5.10548e-09
3.84139e-09
7.33052e-07
-6.0787e-09
2.14985e-09
7.72748e-07
-6.79262e-09
1.08564e-17
7.92155e-07
-7.14735e-09
-2.14985e-09
7.92155e-07
-7.14735e-09
-3.84139e-09
7.72748e-07
-6.79262e-09
-4.74731e-09
7.33052e-07
-6.0787e-09
-4.73824e-09
6.71767e-07
-5.10548e-09
5.88791e-07
-3.96533e-09
-3.96533e-09
1.50557e-09
1.50557e-09
5.88048e-07
-1.13405e-09
-1.13405e-09
1.61859e-09
2.19424e-09
6.71035e-07
-1.57562e-09
1.37209e-09
2.82302e-09
7.3246e-07
-1.98498e-09
7.88338e-10
3.29594e-09
7.72335e-07
-2.29921e-09
1.8462e-16
3.54186e-09
7.91862e-07
-2.46009e-09
-7.88337e-10
3.54186e-09
7.91862e-07
-2.46009e-09
-1.37208e-09
3.29594e-09
7.72335e-07
-2.29921e-09
-1.61859e-09
2.82302e-09
7.3246e-07
-1.98498e-09
-1.50557e-09
2.19424e-09
6.71035e-07
-1.57562e-09
1.50557e-09
5.88048e-07
-1.13405e-09
-1.13405e-09
2.19424e-09
1.61859e-09
6.71035e-07
-1.57562e-09
2.40096e-09
2.40096e-09
7.51971e-07
2.04546e-09
3.10517e-09
8.07703e-07
1.17517e-09
3.62177e-09
8.42516e-07
3.29181e-16
3.88879e-09
8.59241e-07
-1.17517e-09
3.88879e-09
8.59241e-07
-2.04546e-09
3.62177e-09
8.42516e-07
-2.40096e-09
3.10517e-09
8.07703e-07
-2.19424e-09
2.40096e-09
7.51971e-07
1.61859e-09
6.71035e-07
-1.57562e-09
2.82302e-09
1.37209e-09
7.3246e-07
-1.98498e-09
3.10517e-09
2.04546e-09
8.07703e-07
2.64211e-09
2.64212e-09
8.57217e-07
1.51334e-09
3.07087e-09
8.87414e-07
4.17996e-16
3.28981e-09
9.01806e-07
-1.51334e-09
3.28981e-09
9.01806e-07
-2.64211e-09
3.07087e-09
8.87414e-07
-3.10517e-09
2.64211e-09
8.57217e-07
-2.82302e-09
2.04546e-09
8.07703e-07
1.37208e-09
7.3246e-07
-1.98498e-09
3.29594e-09
7.88338e-10
7.72335e-07
-2.29921e-09
3.62177e-09
1.17517e-09
8.42516e-07
3.07087e-09
1.51334e-09
8.87414e-07
1.75335e-09
1.75335e-09
9.14561e-07
5.03581e-16
1.87486e-09
9.27513e-07
-1.75335e-09
1.87486e-09
9.27513e-07
-3.07087e-09
1.75335e-09
9.14561e-07
-3.62177e-09
1.51334e-09