/*--------------------------------*- C++ -*----------------------------------*\
| =========                 |                                                 |
| \\      /  F ield         | OpenFOAM: The Open Source CFD Toolbox           |
|  \\    /   O peration     | Version:  2412                                  |
|   \\  /    A nd           | Website:  www.openfoam.com                      |
|    \\/     M anipulation  |                                                 |
\*---------------------------------------------------------------------------*/
FoamFile
{
    version     2.0;
    format      ascii;
    arch        "LSB;label=32;scalar=64";
    class       volVectorField;
    location    "8.5";
    object      U;
}
// * * * * * * * * * * * * * * * * * * * * * * * * * * * * * * * * * * * * * //

dimensions      [0 1 -1 0 0 0 0];

internalField   nonuniform List<vector> 
15000
(
(0.00120576 0.00120576 0.0103873)
(0.000891171 0.00112746 0.0103363)
(0.000607555 0.00110055 0.010294)
(0.000356859 0.00107424 0.0102664)
(0.00011724 0.00106218 0.0102537)
(-0.00011724 0.00106218 0.0102537)
(-0.000356859 0.00107424 0.0102664)
(-0.000607555 0.00110055 0.010294)
(-0.000891171 0.00112746 0.0103363)
(-0.00120576 0.00120576 0.0103873)
(0.00112746 0.000891171 0.0103363)
(0.000839591 0.000839591 0.0102711)
(0.000575128 0.000802693 0.0102292)
(0.000335722 0.000776662 0.0102068)
(0.000110206 0.000764109 0.0101975)
(-0.000110206 0.000764109 0.0101975)
(-0.000335722 0.000776662 0.0102068)
(-0.000575128 0.000802693 0.0102292)
(-0.000839591 0.000839591 0.0102711)
(-0.00112746 0.000891171 0.0103363)
(0.00110055 0.000607555 0.010294)
(0.000802693 0.000575128 0.0102292)
(0.000546075 0.000546075 0.0101951)
(0.000317112 0.000525153 0.0101792)
(0.0001039 0.000514679 0.0101728)
(-0.0001039 0.000514679 0.0101728)
(-0.000317112 0.000525153 0.0101792)
(-0.000546075 0.000546075 0.0101951)
(-0.000802693 0.000575128 0.0102292)
(-0.00110055 0.000607555 0.010294)
(0.00107424 0.000356859 0.0102664)
(0.000776662 0.000335722 0.0102068)
(0.000525153 0.000317112 0.0101792)
(0.000303662 0.000303662 0.0101668)
(9.93104e-05 0.000296838 0.0101619)
(-9.93104e-05 0.000296838 0.0101619)
(-0.000303662 0.000303662 0.0101668)
(-0.000525153 0.000317112 0.0101792)
(-0.000776662 0.000335722 0.0102068)
(-0.00107424 0.000356859 0.0102664)
(0.00106218 0.00011724 0.0102537)
(0.000764109 0.000110206 0.0101975)
(0.000514679 0.0001039 0.0101728)
(0.000296838 9.93104e-05 0.0101619)
(9.69693e-05 9.69693e-05 0.0101574)
(-9.69693e-05 9.69693e-05 0.0101574)
(-0.000296838 9.93104e-05 0.0101619)
(-0.000514679 0.0001039 0.0101728)
(-0.000764109 0.000110206 0.0101975)
(-0.00106218 0.00011724 0.0102537)
(0.00106218 -0.00011724 0.0102537)
(0.000764109 -0.000110206 0.0101975)
(0.000514679 -0.0001039 0.0101728)
(0.000296838 -9.93104e-05 0.0101619)
(9.69693e-05 -9.69693e-05 0.0101574)
(-9.69693e-05 -9.69693e-05 0.0101574)
(-0.000296838 -9.93104e-05 0.0101619)
(-0.000514679 -0.0001039 0.0101728)
(-0.000764109 -0.000110206 0.0101975)
(-0.00106218 -0.00011724 0.0102537)
(0.00107424 -0.000356859 0.0102664)
(0.000776662 -0.000335722 0.0102068)
(0.000525153 -0.000317112 0.0101792)
(0.000303662 -0.000303662 0.0101668)
(9.93104e-05 -0.000296838 0.0101619)
(-9.93104e-05 -0.000296838 0.0101619)
(-0.000303662 -0.000303662 0.0101668)
(-0.000525153 -0.000317112 0.0101792)
(-0.000776662 -0.000335722 0.0102068)
(-0.00107424 -0.000356859 0.0102664)
(0.00110055 -0.000607555 0.010294)
(0.000802693 -0.000575128 0.0102292)
(0.000546075 -0.000546075 0.0101951)
(0.000317112 -0.000525153 0.0101792)
(0.0001039 -0.000514679 0.0101728)
(-0.0001039 -0.000514679 0.0101728)
(-0.000317112 -0.000525153 0.0101792)
(-0.000546075 -0.000546075 0.0101951)
(-0.000802693 -0.000575128 0.0102292)
(-0.00110055 -0.000607555 0.010294)
(0.00112746 -0.000891171 0.0103363)
(0.000839591 -0.000839591 0.0102711)
(0.000575128 -0.000802693 0.0102292)
(0.000335722 -0.000776662 0.0102068)
(0.000110206 -0.000764109 0.0101975)
(-0.000110206 -0.000764109 0.0101975)
(-0.000335722 -0.000776662 0.0102068)
(-0.000575128 -0.000802693 0.0102292)
(-0.000839591 -0.000839591 0.0102711)
(-0.00112746 -0.000891171 0.0103363)
(0.00120576 -0.00120576 0.0103873)
(0.000891171 -0.00112746 0.0103363)
(0.000607555 -0.00110055 0.010294)
(0.000356859 -0.00107424 0.0102664)
(0.00011724 -0.00106218 0.0102537)
(-0.00011724 -0.00106218 0.0102537)
(-0.000356859 -0.00107424 0.0102664)
(-0.000607555 -0.00110055 0.010294)
(-0.000891171 -0.00112746 0.0103363)
(-0.00120576 -0.00120576 0.0103873)
(0.000826707 0.000826707 0.012684)
(0.000656148 0.0008767 0.0126555)
(0.00046831 0.000906016 0.0125626)
(0.000280456 0.000917445 0.0124724)
(9.29138e-05 0.000922391 0.0124212)
(-9.29138e-05 0.000922391 0.0124212)
(-0.000280456 0.000917445 0.0124724)
(-0.00046831 0.000906016 0.0125626)
(-0.000656148 0.0008767 0.0126555)
(-0.000826707 0.000826707 0.012684)
(0.0008767 0.000656148 0.0126555)
(0.00068214 0.00068214 0.0124924)
(0.000478821 0.000689309 0.0123066)
(0.000282505 0.000687466 0.0121662)
(9.31197e-05 0.000685516 0.0120934)
(-9.31197e-05 0.000685516 0.0120934)
(-0.000282505 0.000687466 0.0121662)
(-0.000478821 0.000689309 0.0123066)
(-0.00068214 0.00068214 0.0124924)
(-0.0008767 0.000656148 0.0126555)
(0.000906016 0.00046831 0.0125626)
(0.000689309 0.000478821 0.0123066)
(0.000476653 0.000476653 0.0120732)
(0.000278344 0.000470853 0.0119117)
(9.13754e-05 0.00046717 0.0118312)
(-9.13754e-05 0.00046717 0.0118312)
(-0.000278344 0.000470853 0.0119117)
(-0.000476653 0.000476653 0.0120732)
(-0.000689309 0.000478821 0.0123066)
(-0.000906016 0.00046831 0.0125626)
(0.000917445 0.000280456 0.0124724)
(0.000687466 0.000282505 0.0121662)
(0.000470853 0.000278344 0.0119117)
(0.000273372 0.000273372 0.011743)
(8.95323e-05 0.000270481 0.0116603)
(-8.95323e-05 0.000270481 0.0116603)
(-0.000273372 0.000273372 0.011743)
(-0.000470853 0.000278344 0.0119117)
(-0.000687466 0.000282505 0.0121662)
(-0.000917445 0.000280456 0.0124724)
(0.000922391 9.29138e-05 0.0124212)
(0.000685516 9.31197e-05 0.0120934)
(0.00046717 9.13754e-05 0.0118312)
(0.000270481 8.95323e-05 0.0116603)
(8.84864e-05 8.84864e-05 0.011577)
(-8.84864e-05 8.84864e-05 0.011577)
(-0.000270481 8.95323e-05 0.0116603)
(-0.00046717 9.13754e-05 0.0118312)
(-0.000685516 9.31197e-05 0.0120934)
(-0.000922391 9.29138e-05 0.0124212)
(0.000922391 -9.29138e-05 0.0124212)
(0.000685516 -9.31197e-05 0.0120934)
(0.00046717 -9.13754e-05 0.0118312)
(0.000270481 -8.95324e-05 0.0116603)
(8.84864e-05 -8.84864e-05 0.011577)
(-8.84864e-05 -8.84864e-05 0.011577)
(-0.000270481 -8.95323e-05 0.0116603)
(-0.00046717 -9.13754e-05 0.0118312)
(-0.000685516 -9.31197e-05 0.0120934)
(-0.000922391 -9.29138e-05 0.0124212)
(0.000917445 -0.000280456 0.0124724)
(0.000687466 -0.000282505 0.0121662)
(0.000470853 -0.000278344 0.0119117)
(0.000273372 -0.000273372 0.011743)
(8.95324e-05 -0.000270481 0.0116603)
(-8.95323e-05 -0.000270481 0.0116603)
(-0.000273372 -0.000273372 0.011743)
(-0.000470853 -0.000278344 0.0119117)
(-0.000687466 -0.000282505 0.0121662)
(-0.000917445 -0.000280456 0.0124724)
(0.000906016 -0.00046831 0.0125626)
(0.000689309 -0.000478821 0.0123066)
(0.000476653 -0.000476653 0.0120732)
(0.000278344 -0.000470853 0.0119117)
(9.13754e-05 -0.00046717 0.0118312)
(-9.13754e-05 -0.00046717 0.0118312)
(-0.000278344 -0.000470853 0.0119117)
(-0.000476653 -0.000476653 0.0120732)
(-0.000689309 -0.000478821 0.0123066)
(-0.000906016 -0.00046831 0.0125626)
(0.0008767 -0.000656148 0.0126555)
(0.00068214 -0.00068214 0.0124924)
(0.000478821 -0.000689309 0.0123066)
(0.000282505 -0.000687466 0.0121662)
(9.31197e-05 -0.000685516 0.0120934)
(-9.31197e-05 -0.000685516 0.0120934)
(-0.000282505 -0.000687466 0.0121662)
(-0.000478821 -0.000689309 0.0123066)
(-0.00068214 -0.00068214 0.0124924)
(-0.0008767 -0.000656148 0.0126555)
(0.000826707 -0.000826707 0.012684)
(0.000656148 -0.0008767 0.0126555)
(0.00046831 -0.000906016 0.0125626)
(0.000280456 -0.000917445 0.0124724)
(9.29138e-05 -0.000922391 0.0124212)
(-9.29138e-05 -0.000922391 0.0124212)
(-0.000280456 -0.000917445 0.0124724)
(-0.00046831 -0.000906016 0.0125626)
(-0.000656148 -0.0008767 0.0126555)
(-0.000826707 -0.000826707 0.012684)
(0.000645358 0.000645358 0.0125235)
(0.000541389 0.000731213 0.0128253)
(0.000408743 0.00078906 0.0129384)
(0.000252989 0.000822535 0.0129612)
(8.5255e-05 0.000838176 0.0129584)
(-8.5255e-05 0.000838176 0.0129584)
(-0.000252989 0.000822535 0.0129612)
(-0.000408743 0.00078906 0.0129384)
(-0.000541389 0.000731213 0.0128253)
(-0.000645358 0.000645358 0.0125235)
(0.000731213 0.000541389 0.0128253)
(0.000609827 0.000609827 0.0129592)
(0.000451433 0.000649312 0.0129241)
(0.000275787 0.000668945 0.0128509)
(9.24893e-05 0.000677182 0.0128023)
(-9.24893e-05 0.000677182 0.0128023)
(-0.000275787 0.000668945 0.0128509)
(-0.000451433 0.000649312 0.0129241)
(-0.000609827 0.000609827 0.0129592)
(-0.000731213 0.000541389 0.0128253)
(0.00078906 0.000408743 0.0129384)
(0.000649312 0.000451433 0.0129241)
(0.000474233 0.000474233 0.012786)
(0.000286941 0.00048435 0.0126542)
(9.58541e-05 0.000488148 0.0125801)
(-9.58541e-05 0.000488148 0.0125801)
(-0.000286941 0.00048435 0.0126542)
(-0.000474233 0.000474233 0.012786)
(-0.000649312 0.000451433 0.0129241)
(-0.00078906 0.000408743 0.0129384)
(0.000822535 0.000252989 0.0129612)
(0.000668945 0.000275787 0.0128509)
(0.00048435 0.000286941 0.0126542)
(0.000291466 0.000291466 0.012493)
(9.71494e-05 0.000293 0.0124074)
(-9.71494e-05 0.000293 0.0124074)
(-0.000291466 0.000291466 0.012493)
(-0.00048435 0.000286941 0.0126542)
(-0.000668945 0.000275787 0.0128509)
(-0.000822535 0.000252989 0.0129612)
(0.000838176 8.5255e-05 0.0129584)
(0.000677182 9.24893e-05 0.0128023)
(0.000488148 9.58541e-05 0.0125801)
(0.000293 9.71494e-05 0.0124074)
(9.75608e-05 9.75608e-05 0.0123178)
(-9.75608e-05 9.75608e-05 0.0123178)
(-0.000293 9.71494e-05 0.0124074)
(-0.000488148 9.58541e-05 0.0125801)
(-0.000677182 9.24893e-05 0.0128023)
(-0.000838176 8.5255e-05 0.0129584)
(0.000838176 -8.5255e-05 0.0129584)
(0.000677182 -9.24893e-05 0.0128023)
(0.000488148 -9.58541e-05 0.0125801)
(0.000293 -9.71494e-05 0.0124074)
(9.75608e-05 -9.75608e-05 0.0123178)
(-9.75608e-05 -9.75608e-05 0.0123178)
(-0.000293 -9.71494e-05 0.0124074)
(-0.000488148 -9.58541e-05 0.0125801)
(-0.000677182 -9.24893e-05 0.0128023)
(-0.000838176 -8.5255e-05 0.0129584)
(0.000822535 -0.000252989 0.0129612)
(0.000668945 -0.000275787 0.0128509)
(0.00048435 -0.000286941 0.0126542)
(0.000291466 -0.000291466 0.012493)
(9.71494e-05 -0.000293 0.0124074)
(-9.71494e-05 -0.000293 0.0124074)
(-0.000291466 -0.000291466 0.012493)
(-0.00048435 -0.000286941 0.0126542)
(-0.000668945 -0.000275787 0.0128509)
(-0.000822535 -0.000252989 0.0129612)
(0.00078906 -0.000408743 0.0129384)
(0.000649312 -0.000451433 0.0129241)
(0.000474233 -0.000474233 0.012786)
(0.000286941 -0.00048435 0.0126542)
(9.58541e-05 -0.000488148 0.0125801)
(-9.58541e-05 -0.000488148 0.0125801)
(-0.000286941 -0.00048435 0.0126542)
(-0.000474233 -0.000474233 0.012786)
(-0.000649312 -0.000451433 0.0129241)
(-0.00078906 -0.000408743 0.0129384)
(0.000731213 -0.000541389 0.0128253)
(0.000609827 -0.000609827 0.0129592)
(0.000451433 -0.000649312 0.0129241)
(0.000275787 -0.000668945 0.0128509)
(9.24893e-05 -0.000677182 0.0128023)
(-9.24893e-05 -0.000677182 0.0128023)
(-0.000275787 -0.000668945 0.0128509)
(-0.000451433 -0.000649312 0.0129241)
(-0.000609827 -0.000609827 0.0129592)
(-0.000731213 -0.000541389 0.0128253)
(0.000645358 -0.000645358 0.0125235)
(0.000541389 -0.000731213 0.0128253)
(0.000408743 -0.00078906 0.0129384)
(0.000252989 -0.000822535 0.0129612)
(8.5255e-05 -0.000838176 0.0129584)
(-8.5255e-05 -0.000838176 0.0129584)
(-0.000252989 -0.000822535 0.0129612)
(-0.000408743 -0.00078906 0.0129384)
(-0.000541389 -0.000731213 0.0128253)
(-0.000645358 -0.000645358 0.0125235)
(0.000335935 0.000335935 0.0127543)
(0.000293332 0.000408532 0.0132381)
(0.000232094 0.000461307 0.0134828)
(0.000147391 0.000495931 0.0135863)
(5.03417e-05 0.000512645 0.0136209)
(-5.03417e-05 0.000512645 0.0136209)
(-0.000147391 0.000495931 0.0135863)
(-0.000232094 0.000461307 0.0134828)
(-0.000293332 0.000408532 0.0132381)
(-0.000335935 0.000335935 0.0127543)
(0.000408532 0.000293332 0.0132381)
(0.000359047 0.000359047 0.013575)
(0.000277816 0.000404057 0.0136633)
(0.000174585 0.000431307 0.013656)
(5.93795e-05 0.000444106 0.0136352)
(-5.93795e-05 0.000444106 0.0136352)
(-0.000174585 0.000431307 0.013656)
(-0.000277816 0.000404057 0.0136633)
(-0.000359047 0.000359047 0.013575)
(-0.000408532 0.000293332 0.0132381)
(0.000461307 0.000232094 0.0134828)
(0.000404057 0.000277816 0.0136633)
(0.000309261 0.000309261 0.0136271)
(0.000192934 0.000327959 0.0135419)
(6.54326e-05 0.000336637 0.0134853)
(-6.54326e-05 0.000336637 0.0134853)
(-0.000192934 0.000327959 0.0135419)
(-0.000309261 0.000309261 0.0136271)
(-0.000404057 0.000277816 0.0136633)
(-0.000461307 0.000232094 0.0134828)
(0.000495931 0.000147391 0.0135863)
(0.000431307 0.000174585 0.013656)
(0.000327959 0.000192934 0.0135419)
(0.000203802 0.000203802 0.0134135)
(6.90148e-05 0.000208827 0.0133386)
(-6.90147e-05 0.000208827 0.0133386)
(-0.000203802 0.000203802 0.0134135)
(-0.000327959 0.000192934 0.0135419)
(-0.000431307 0.000174585 0.013656)
(-0.000495931 0.000147391 0.0135863)
(0.000512645 5.03417e-05 0.0136209)
(0.000444106 5.93795e-05 0.0136352)
(0.000336637 6.54326e-05 0.0134853)
(0.000208827 6.90148e-05 0.0133386)
(7.06683e-05 7.06683e-05 0.0132567)
(-7.06683e-05 7.06683e-05 0.0132567)
(-0.000208827 6.90148e-05 0.0133386)
(-0.000336637 6.54326e-05 0.0134853)
(-0.000444106 5.93795e-05 0.0136352)
(-0.000512645 5.03417e-05 0.0136209)
(0.000512645 -5.03417e-05 0.0136209)
(0.000444106 -5.93795e-05 0.0136352)
(0.000336637 -6.54326e-05 0.0134853)
(0.000208827 -6.90147e-05 0.0133386)
(7.06683e-05 -7.06683e-05 0.0132567)
(-7.06683e-05 -7.06683e-05 0.0132567)
(-0.000208827 -6.90147e-05 0.0133386)
(-0.000336637 -6.54326e-05 0.0134853)
(-0.000444106 -5.93795e-05 0.0136352)
(-0.000512645 -5.03417e-05 0.0136209)
(0.000495931 -0.000147391 0.0135863)
(0.000431307 -0.000174585 0.013656)
(0.000327959 -0.000192934 0.0135419)
(0.000203802 -0.000203802 0.0134135)
(6.90148e-05 -0.000208827 0.0133386)
(-6.90147e-05 -0.000208827 0.0133386)
(-0.000203802 -0.000203802 0.0134135)
(-0.000327959 -0.000192934 0.0135419)
(-0.000431307 -0.000174585 0.013656)
(-0.000495931 -0.000147391 0.0135863)
(0.000461307 -0.000232094 0.0134828)
(0.000404057 -0.000277816 0.0136633)
(0.000309261 -0.000309261 0.0136271)
(0.000192934 -0.000327959 0.0135419)
(6.54326e-05 -0.000336637 0.0134853)
(-6.54326e-05 -0.000336637 0.0134853)
(-0.000192934 -0.000327959 0.0135419)
(-0.000309261 -0.000309261 0.0136271)
(-0.000404057 -0.000277816 0.0136633)
(-0.000461307 -0.000232094 0.0134828)
(0.000408532 -0.000293332 0.0132381)
(0.000359047 -0.000359047 0.013575)
(0.000277816 -0.000404057 0.0136633)
(0.000174585 -0.000431307 0.013656)
(5.93795e-05 -0.000444106 0.0136352)
(-5.93795e-05 -0.000444106 0.0136352)
(-0.000174585 -0.000431307 0.013656)
(-0.000277816 -0.000404057 0.0136633)
(-0.000359047 -0.000359047 0.013575)
(-0.000408532 -0.000293332 0.0132381)
(0.000335935 -0.000335935 0.0127543)
(0.000293332 -0.000408532 0.0132381)
(0.000232094 -0.000461307 0.0134828)
(0.000147391 -0.000495931 0.0135863)
(5.03417e-05 -0.000512645 0.0136209)
(-5.03417e-05 -0.000512645 0.0136209)
(-0.000147391 -0.000495931 0.0135863)
(-0.000232094 -0.000461307 0.0134828)
(-0.000293332 -0.000408532 0.0132381)
(-0.000335935 -0.000335935 0.0127543)
(0.000177186 0.000177186 0.0126566)
(0.000158144 0.000220678 0.0132578)
(0.000129209 0.00025529 0.0135975)
(8.35642e-05 0.000279399 0.0137654)
(2.88189e-05 0.000291354 0.0138318)
(-2.88189e-05 0.000291354 0.0138318)
(-8.35642e-05 0.000279399 0.0137654)
(-0.000129209 0.00025529 0.0135975)
(-0.000158144 0.000220678 0.0132578)
(-0.000177186 0.000177186 0.0126566)
(0.000220678 0.000158144 0.0132578)
(0.000202153 0.000202153 0.0137463)
(0.000162069 0.000235172 0.0139432)
(0.000104152 0.00025685 0.0140042)
(3.58204e-05 0.000267487 0.014016)
(-3.58204e-05 0.000267487 0.014016)
(-0.000104152 0.00025685 0.0140042)
(-0.000162069 0.000235172 0.0139432)
(-0.000202153 0.000202153 0.0137463)
(-0.000220678 0.000158144 0.0132578)
(0.00025529 0.000129209 0.0135975)
(0.000235172 0.000162069 0.0139432)
(0.00018718 0.00018718 0.0140175)
(0.00011973 0.000203498 0.0139984)
(4.1104e-05 0.000211463 0.0139724)
(-4.1104e-05 0.000211463 0.0139724)
(-0.00011973 0.000203498 0.0139984)
(-0.00018718 0.00018718 0.0140175)
(-0.000235172 0.000162069 0.0139432)
(-0.00025529 0.000129209 0.0135975)
(0.000279399 8.35642e-05 0.0137654)
(0.00025685 0.000104152 0.0140042)
(0.000203498 0.00011973 0.0139984)
(0.000129803 0.000129803 0.0139328)
(4.45138e-05 0.000134701 0.0138868)
(-4.45138e-05 0.000134701 0.0138868)
(-0.000129803 0.000129803 0.0139328)
(-0.000203498 0.00011973 0.0139984)
(-0.00025685 0.000104152 0.0140042)
(-0.000279399 8.35642e-05 0.0137654)
(0.000291354 2.88189e-05 0.0138318)
(0.000267487 3.58204e-05 0.014016)
(0.000211463 4.1104e-05 0.0139724)
(0.000134701 4.45138e-05 0.0138868)
(4.61674e-05 4.61674e-05 0.0138328)
(-4.61674e-05 4.61674e-05 0.0138328)
(-0.000134701 4.45138e-05 0.0138868)
(-0.000211463 4.1104e-05 0.0139724)
(-0.000267487 3.58204e-05 0.014016)
(-0.000291354 2.88189e-05 0.0138318)
(0.000291354 -2.88189e-05 0.0138318)
(0.000267487 -3.58204e-05 0.014016)
(0.000211463 -4.1104e-05 0.0139724)
(0.000134701 -4.45138e-05 0.0138868)
(4.61674e-05 -4.61674e-05 0.0138328)
(-4.61674e-05 -4.61674e-05 0.0138328)
(-0.000134701 -4.45138e-05 0.0138868)
(-0.000211463 -4.1104e-05 0.0139724)
(-0.000267487 -3.58204e-05 0.014016)
(-0.000291354 -2.88189e-05 0.0138318)
(0.000279399 -8.35642e-05 0.0137654)
(0.00025685 -0.000104152 0.0140042)
(0.000203498 -0.00011973 0.0139984)
(0.000129803 -0.000129803 0.0139328)
(4.45138e-05 -0.000134701 0.0138868)
(-4.45138e-05 -0.000134701 0.0138868)
(-0.000129803 -0.000129803 0.0139328)
(-0.000203498 -0.00011973 0.0139984)
(-0.00025685 -0.000104152 0.0140042)
(-0.000279399 -8.35642e-05 0.0137654)
(0.00025529 -0.000129209 0.0135975)
(0.000235172 -0.000162069 0.0139432)
(0.00018718 -0.00018718 0.0140175)
(0.00011973 -0.000203498 0.0139984)
(4.1104e-05 -0.000211463 0.0139724)
(-4.1104e-05 -0.000211463 0.0139724)
(-0.00011973 -0.000203498 0.0139984)
(-0.00018718 -0.00018718 0.0140175)
(-0.000235172 -0.000162069 0.0139432)
(-0.00025529 -0.000129209 0.0135975)
(0.000220678 -0.000158144 0.0132578)
(0.000202153 -0.000202153 0.0137463)
(0.000162069 -0.000235172 0.0139432)
(0.000104152 -0.00025685 0.0140042)
(3.58204e-05 -0.000267487 0.014016)
(-3.58204e-05 -0.000267487 0.014016)
(-0.000104152 -0.00025685 0.0140042)
(-0.000162069 -0.000235172 0.0139432)
(-0.000202153 -0.000202153 0.0137463)
(-0.000220678 -0.000158144 0.0132578)
(0.000177186 -0.000177186 0.0126566)
(0.000158144 -0.000220678 0.0132578)
(0.000129209 -0.00025529 0.0135975)
(8.35642e-05 -0.000279399 0.0137654)
(2.88189e-05 -0.000291354 0.0138318)
(-2.88189e-05 -0.000291354 0.0138318)
(-8.35642e-05 -0.000279399 0.0137654)
(-0.000129209 -0.00025529 0.0135975)
(-0.000158144 -0.000220678 0.0132578)
(-0.000177186 -0.000177186 0.0126566)
(7.54425e-05 7.54425e-05 0.012583)
(7.03548e-05 9.90469e-05 0.0132278)
(6.02944e-05 0.000119239 0.0136094)
(4.00471e-05 0.000134124 0.0138088)
(1.40053e-05 0.000141716 0.013892)
(-1.40052e-05 0.000141716 0.013892)
(-4.0047e-05 0.000134124 0.0138088)
(-6.02944e-05 0.000119239 0.0136094)
(-7.03548e-05 9.90469e-05 0.0132278)
(-7.54424e-05 7.54424e-05 0.012583)
(9.90469e-05 7.03548e-05 0.0132278)
(9.64711e-05 9.64711e-05 0.0137877)
(8.12573e-05 0.000117841 0.0140446)
(5.38291e-05 0.000132881 0.0141479)
(1.87914e-05 0.000140544 0.0141812)
(-1.87914e-05 0.000140544 0.0141812)
(-5.38291e-05 0.000132881 0.0141479)
(-8.12573e-05 0.000117841 0.0140446)
(-9.64711e-05 9.64711e-05 0.0137877)
(-9.90469e-05 7.03548e-05 0.0132278)
(0.000119239 6.02944e-05 0.0136094)
(0.000117841 8.12573e-05 0.0140446)
(9.88001e-05 9.88001e-05 0.0141902)
(6.52573e-05 0.000111005 0.0142193)
(2.27503e-05 0.000117189 0.0142175)
(-2.27503e-05 0.000117189 0.0142175)
(-6.52573e-05 0.000111005 0.0142193)
(-9.88001e-05 9.88001e-05 0.0141902)
(-0.000117841 8.12573e-05 0.0140446)
(-0.000119239 6.02944e-05 0.0136094)
(0.000134124 4.00471e-05 0.0138088)
(0.000132881 5.38291e-05 0.0141479)
(0.000111005 6.52573e-05 0.0142193)
(7.31389e-05 7.31389e-05 0.0142048)
(2.54698e-05 7.71086e-05 0.014184)
(-2.54698e-05 7.71086e-05 0.014184)
(-7.31389e-05 7.31389e-05 0.0142048)
(-0.000111005 6.52573e-05 0.0142193)
(-0.000132881 5.38291e-05 0.0141479)
(-0.000134124 4.00471e-05 0.0138088)
(0.000141716 1.40053e-05 0.013892)
(0.000140544 1.87914e-05 0.0141812)
(0.000117189 2.27503e-05 0.0142175)
(7.71086e-05 2.54698e-05 0.014184)
(2.68348e-05 2.68348e-05 0.0141556)
(-2.68348e-05 2.68348e-05 0.0141556)
(-7.71085e-05 2.54698e-05 0.014184)
(-0.000117189 2.27503e-05 0.0142175)
(-0.000140544 1.87914e-05 0.0141812)
(-0.000141716 1.40053e-05 0.013892)
(0.000141716 -1.40052e-05 0.013892)
(0.000140544 -1.87914e-05 0.0141812)
(0.000117189 -2.27503e-05 0.0142175)
(7.71086e-05 -2.54698e-05 0.014184)
(2.68348e-05 -2.68348e-05 0.0141556)
(-2.68348e-05 -2.68348e-05 0.0141556)
(-7.71085e-05 -2.54698e-05 0.014184)
(-0.000117189 -2.27503e-05 0.0142175)
(-0.000140544 -1.87914e-05 0.0141812)
(-0.000141716 -1.40052e-05 0.013892)
(0.000134124 -4.0047e-05 0.0138088)
(0.000132881 -5.38291e-05 0.0141479)
(0.000111005 -6.52573e-05 0.0142193)
(7.31389e-05 -7.31389e-05 0.0142048)
(2.54698e-05 -7.71085e-05 0.014184)
(-2.54698e-05 -7.71085e-05 0.014184)
(-7.31389e-05 -7.31389e-05 0.0142048)
(-0.000111005 -6.52573e-05 0.0142193)
(-0.000132881 -5.38291e-05 0.0141479)
(-0.000134124 -4.0047e-05 0.0138088)
(0.000119239 -6.02944e-05 0.0136094)
(0.000117841 -8.12573e-05 0.0140446)
(9.88001e-05 -9.88001e-05 0.0141902)
(6.52573e-05 -0.000111005 0.0142193)
(2.27503e-05 -0.000117189 0.0142175)
(-2.27503e-05 -0.000117189 0.0142175)
(-6.52573e-05 -0.000111005 0.0142193)
(-9.88001e-05 -9.88001e-05 0.0141902)
(-0.000117841 -8.12573e-05 0.0140446)
(-0.000119239 -6.02944e-05 0.0136094)
(9.90469e-05 -7.03548e-05 0.0132278)
(9.64711e-05 -9.64711e-05 0.0137877)
(8.12573e-05 -0.000117841 0.0140446)
(5.38291e-05 -0.000132881 0.0141479)
(1.87914e-05 -0.000140544 0.0141812)
(-1.87914e-05 -0.000140544 0.0141812)
(-5.38291e-05 -0.000132881 0.0141479)
(-8.12573e-05 -0.000117841 0.0140446)
(-9.64711e-05 -9.64711e-05 0.0137877)
(-9.90469e-05 -7.03548e-05 0.0132278)
(7.54424e-05 -7.54424e-05 0.012583)
(7.03548e-05 -9.90469e-05 0.0132278)
(6.02944e-05 -0.000119239 0.0136094)
(4.0047e-05 -0.000134124 0.0138088)
(1.40053e-05 -0.000141716 0.013892)
(-1.40052e-05 -0.000141716 0.013892)
(-4.0047e-05 -0.000134124 0.0138088)
(-6.02944e-05 -0.000119239 0.0136094)
(-7.03548e-05 -9.90469e-05 0.0132278)
(-7.54424e-05 -7.54425e-05 0.012583)
(2.71644e-05 2.71644e-05 0.0125393)
(2.66398e-05 3.77271e-05 0.0131989)
(2.40614e-05 4.74796e-05 0.0135978)
(1.64353e-05 5.50765e-05 0.0138119)
(5.83836e-06 5.90594e-05 0.0139032)
(-5.83835e-06 5.90594e-05 0.0139032)
(-1.64353e-05 5.50765e-05 0.0138119)
(-2.40614e-05 4.74796e-05 0.0135978)
(-2.66398e-05 3.77271e-05 0.0131989)
(-2.71644e-05 2.71644e-05 0.0125393)
(3.77271e-05 2.66398e-05 0.0131989)
(3.94855e-05 3.94855e-05 0.0137897)
(3.51468e-05 5.09129e-05 0.0140772)
(2.40503e-05 5.94653e-05 0.0142043)
(8.53226e-06 6.39636e-05 0.0142505)
(-8.53226e-06 6.39636e-05 0.0142505)
(-2.40503e-05 5.94653e-05 0.0142043)
(-3.51468e-05 5.09129e-05 0.0140772)
(-3.94855e-05 3.94855e-05 0.0137897)
(-3.77271e-05 2.66398e-05 0.0131989)
(4.74796e-05 2.40614e-05 0.0135978)
(5.09129e-05 3.51468e-05 0.0140772)
(4.52028e-05 4.52028e-05 0.0142639)
(3.08815e-05 5.26128e-05 0.0143236)
(1.09403e-05 5.64811e-05 0.0143379)
(-1.09403e-05 5.64811e-05 0.0143379)
(-3.08815e-05 5.26128e-05 0.0143236)
(-4.52028e-05 4.52028e-05 0.0142639)
(-5.09129e-05 3.51468e-05 0.0140772)
(-4.74796e-05 2.40614e-05 0.0135978)
(5.50765e-05 1.64353e-05 0.0138119)
(5.94653e-05 2.40503e-05 0.0142043)
(5.26128e-05 3.08815e-05 0.0143236)
(3.58528e-05 3.58528e-05 0.0143437)
(1.26829e-05 3.84274e-05 0.0143407)
(-1.26829e-05 3.84274e-05 0.0143407)
(-3.58528e-05 3.58528e-05 0.0143437)
(-5.26128e-05 3.08815e-05 0.0143236)
(-5.94653e-05 2.40503e-05 0.0142043)
(-5.50765e-05 1.64353e-05 0.0138119)
(5.90594e-05 5.83836e-06 0.0139032)
(6.39636e-05 8.53226e-06 0.0142505)
(5.64811e-05 1.09403e-05 0.0143379)
(3.84274e-05 1.26829e-05 0.0143407)
(1.35816e-05 1.35816e-05 0.0143308)
(-1.35816e-05 1.35816e-05 0.0143308)
(-3.84274e-05 1.26829e-05 0.0143407)
(-5.64811e-05 1.09404e-05 0.0143379)
(-6.39636e-05 8.53226e-06 0.0142505)
(-5.90593e-05 5.83836e-06 0.0139032)
(5.90594e-05 -5.83835e-06 0.0139032)
(6.39636e-05 -8.53226e-06 0.0142505)
(5.64811e-05 -1.09403e-05 0.0143379)
(3.84274e-05 -1.26829e-05 0.0143407)
(1.35816e-05 -1.35816e-05 0.0143308)
(-1.35816e-05 -1.35816e-05 0.0143308)
(-3.84274e-05 -1.26829e-05 0.0143407)
(-5.64811e-05 -1.09403e-05 0.0143379)
(-6.39636e-05 -8.53226e-06 0.0142505)
(-5.90593e-05 -5.83835e-06 0.0139032)
(5.50765e-05 -1.64353e-05 0.0138119)
(5.94653e-05 -2.40503e-05 0.0142043)
(5.26128e-05 -3.08815e-05 0.0143236)
(3.58528e-05 -3.58528e-05 0.0143437)
(1.26829e-05 -3.84274e-05 0.0143407)
(-1.26829e-05 -3.84274e-05 0.0143407)
(-3.58528e-05 -3.58528e-05 0.0143437)
(-5.26128e-05 -3.08815e-05 0.0143236)
(-5.94653e-05 -2.40503e-05 0.0142043)
(-5.50765e-05 -1.64353e-05 0.0138119)
(4.74796e-05 -2.40614e-05 0.0135978)
(5.09129e-05 -3.51468e-05 0.0140772)
(4.52028e-05 -4.52027e-05 0.0142639)
(3.08815e-05 -5.26128e-05 0.0143236)
(1.09404e-05 -5.64811e-05 0.0143379)
(-1.09403e-05 -5.64811e-05 0.0143379)
(-3.08815e-05 -5.26128e-05 0.0143236)
(-4.52028e-05 -4.52028e-05 0.0142639)
(-5.09129e-05 -3.51468e-05 0.0140772)
(-4.74796e-05 -2.40614e-05 0.0135978)
(3.77271e-05 -2.66398e-05 0.0131989)
(3.94855e-05 -3.94855e-05 0.0137897)
(3.51468e-05 -5.09129e-05 0.0140772)
(2.40503e-05 -5.94653e-05 0.0142043)
(8.53226e-06 -6.39636e-05 0.0142505)
(-8.53226e-06 -6.39636e-05 0.0142505)
(-2.40503e-05 -5.94653e-05 0.0142043)
(-3.51468e-05 -5.09129e-05 0.0140772)
(-3.94855e-05 -3.94855e-05 0.0137897)
(-3.77271e-05 -2.66398e-05 0.0131989)
(2.71644e-05 -2.71644e-05 0.0125393)
(2.66398e-05 -3.77271e-05 0.0131989)
(2.40614e-05 -4.74796e-05 0.0135978)
(1.64353e-05 -5.50765e-05 0.0138119)
(5.83836e-06 -5.90593e-05 0.0139032)
(-5.83836e-06 -5.90593e-05 0.0139032)
(-1.64353e-05 -5.50765e-05 0.0138119)
(-2.40614e-05 -4.74796e-05 0.0135978)
(-2.66398e-05 -3.77271e-05 0.0131989)
(-2.71644e-05 -2.71644e-05 0.0125393)
(8.32639e-06 8.32639e-06 0.0125163)
(8.79041e-06 1.2478e-05 0.013179)
(8.49425e-06 1.6583e-05 0.0135834)
(6.00436e-06 1.99439e-05 0.0138031)
(2.17428e-06 2.17506e-05 0.0138979)
(-2.17428e-06 2.17506e-05 0.0138979)
(-6.00436e-06 1.99439e-05 0.0138031)
(-8.49424e-06 1.6583e-05 0.0135834)
(-8.79041e-06 1.2478e-05 0.013179)
(-8.32639e-06 8.32639e-06 0.0125163)
(1.2478e-05 8.79041e-06 0.013179)
(1.43178e-05 1.43178e-05 0.0137807)
(1.35815e-05 1.96011e-05 0.0140813)
(9.62784e-06 2.37569e-05 0.0142198)
(3.47579e-06 2.59989e-05 0.0142725)
(-3.47578e-06 2.59989e-05 0.0142725)
(-9.62784e-06 2.37569e-05 0.0142198)
(-1.35816e-05 1.96011e-05 0.0140813)
(-1.43178e-05 1.43178e-05 0.0137807)
(-1.2478e-05 8.79041e-06 0.013179)
(1.6583e-05 8.49425e-06 0.0135834)
(1.96011e-05 1.35816e-05 0.0140813)
(1.85099e-05 1.85099e-05 0.0142882)
(1.30892e-05 2.23104e-05 0.0143643)
(4.71288e-06 2.43405e-05 0.0143875)
(-4.71287e-06 2.43405e-05 0.0143875)
(-1.30892e-05 2.23104e-05 0.0143643)
(-1.85099e-05 1.85099e-05 0.0142882)
(-1.96011e-05 1.35816e-05 0.0140813)
(-1.6583e-05 8.49425e-06 0.0135834)
(1.99439e-05 6.00436e-06 0.0138031)
(2.37569e-05 9.62784e-06 0.0142198)
(2.23104e-05 1.30892e-05 0.0143643)
(1.57181e-05 1.57181e-05 0.014404)
(5.64598e-06 1.71092e-05 0.0144115)
(-5.64598e-06 1.71092e-05 0.0144115)
(-1.57181e-05 1.57181e-05 0.014404)
(-2.23104e-05 1.30892e-05 0.0143643)
(-2.37569e-05 9.62784e-06 0.0142198)
(-1.99439e-05 6.00436e-06 0.0138031)
(2.17506e-05 2.17429e-06 0.0138979)
(2.59989e-05 3.47579e-06 0.0142725)
(2.43405e-05 4.71288e-06 0.0143875)
(1.71092e-05 5.64598e-06 0.0144115)
(6.1374e-06 6.1374e-06 0.0144127)
(-6.13739e-06 6.1374e-06 0.0144127)
(-1.71092e-05 5.64599e-06 0.0144115)
(-2.43405e-05 4.71288e-06 0.0143875)
(-2.59989e-05 3.47579e-06 0.0142725)
(-2.17506e-05 2.17429e-06 0.0138979)
(2.17506e-05 -2.17428e-06 0.0138979)
(2.59989e-05 -3.47578e-06 0.0142725)
(2.43405e-05 -4.71287e-06 0.0143875)
(1.71092e-05 -5.64598e-06 0.0144115)
(6.1374e-06 -6.13739e-06 0.0144127)
(-6.13739e-06 -6.13739e-06 0.0144127)
(-1.71092e-05 -5.64597e-06 0.0144115)
(-2.43405e-05 -4.71287e-06 0.0143875)
(-2.59989e-05 -3.47578e-06 0.0142725)
(-2.17506e-05 -2.17428e-06 0.0138979)
(1.99439e-05 -6.00436e-06 0.0138031)
(2.37569e-05 -9.62784e-06 0.0142198)
(2.23104e-05 -1.30892e-05 0.0143643)
(1.57181e-05 -1.57181e-05 0.014404)
(5.64598e-06 -1.71092e-05 0.0144115)
(-5.64597e-06 -1.71092e-05 0.0144115)
(-1.57181e-05 -1.57181e-05 0.014404)
(-2.23104e-05 -1.30892e-05 0.0143643)
(-2.37568e-05 -9.62783e-06 0.0142198)
(-1.99439e-05 -6.00436e-06 0.0138031)
(1.6583e-05 -8.49425e-06 0.0135834)
(1.96011e-05 -1.35816e-05 0.0140813)
(1.85099e-05 -1.85099e-05 0.0142882)
(1.30892e-05 -2.23104e-05 0.0143643)
(4.71288e-06 -2.43405e-05 0.0143875)
(-4.71287e-06 -2.43405e-05 0.0143875)
(-1.30892e-05 -2.23104e-05 0.0143643)
(-1.85099e-05 -1.85099e-05 0.0142882)
(-1.96011e-05 -1.35815e-05 0.0140813)
(-1.6583e-05 -8.49424e-06 0.0135834)
(1.2478e-05 -8.79041e-06 0.013179)
(1.43178e-05 -1.43178e-05 0.0137807)
(1.35816e-05 -1.96011e-05 0.0140813)
(9.62784e-06 -2.37569e-05 0.0142198)
(3.47579e-06 -2.59989e-05 0.0142725)
(-3.47578e-06 -2.59989e-05 0.0142725)
(-9.62784e-06 -2.37569e-05 0.0142198)
(-1.35815e-05 -1.96011e-05 0.0140813)
(-1.43178e-05 -1.43178e-05 0.0137807)
(-1.2478e-05 -8.79041e-06 0.013179)
(8.32639e-06 -8.32639e-06 0.0125163)
(8.79041e-06 -1.2478e-05 0.013179)
(8.49424e-06 -1.6583e-05 0.0135834)
(6.00436e-06 -1.99439e-05 0.0138031)