/*--------------------------------*- C++ -*----------------------------------*\
| =========                 |                                                 |
| \\      /  F ield         | OpenFOAM: The Open Source CFD Toolbox           |
|  \\    /   O peration     | Version:  2412                                  |
|   \\  /    A nd           | Website:  www.openfoam.com                      |
|    \\/     M anipulation  |                                                 |
\*---------------------------------------------------------------------------*/
FoamFile
{
    version     2.0;
    format      ascii;
    arch        "LSB;label=32;scalar=64";
    class       surfaceScalarField;
    location    "9.6";
    object      phi;
}
// * * * * * * * * * * * * * * * * * * * * * * * * * * * * * * * * * * * * * //

dimensions      [0 3 -1 0 0 0 0];

oriented        oriented;

internalField   nonuniform List<scalar> 
43700
(
1.82772e-07
1.82772e-07
5.4998e-07
-2.22752e-07
-2.22752e-07
1.34985e-07
1.61688e-07
5.93533e-07
-1.98049e-07
8.93267e-08
1.48171e-07
6.24391e-07
-1.87474e-07
4.43097e-08
1.39227e-07
6.44201e-07
-1.78698e-07
-6.15386e-17
1.34949e-07
6.53946e-07
-1.74656e-07
-4.43097e-08
1.34949e-07
6.53946e-07
-1.74656e-07
-8.93267e-08
1.39227e-07
6.44201e-07
-1.78698e-07
-1.34985e-07
1.48171e-07
6.24391e-07
-1.87474e-07
-1.82772e-07
1.61688e-07
5.93533e-07
-1.98049e-07
1.82772e-07
5.4998e-07
-2.22752e-07
-2.22752e-07
1.61688e-07
1.34985e-07
5.93533e-07
-1.98049e-07
1.20115e-07
1.20115e-07
6.28987e-07
7.9136e-08
1.08984e-07
6.53857e-07
3.92017e-08
1.01636e-07
6.70022e-07
-5.75134e-17
9.80683e-08
6.78055e-07
-3.92017e-08
9.80683e-08
6.78055e-07
-7.9136e-08
1.01636e-07
6.70022e-07
-1.20115e-07
1.08984e-07
6.53857e-07
-1.61688e-07
1.20115e-07
6.28987e-07
1.34985e-07
5.93533e-07
-1.98049e-07
1.48171e-07
8.93267e-08
6.24391e-07
-1.87474e-07
1.08984e-07
7.9136e-08
6.53857e-07
7.14473e-08
7.14473e-08
6.74946e-07
3.53296e-08
6.63694e-08
6.88947e-07
-7.49842e-17
6.38888e-08
6.95987e-07
-3.53296e-08
6.38888e-08
6.95987e-07
-7.14473e-08
6.63694e-08
6.88947e-07
-1.08984e-07
7.14473e-08
6.74946e-07
-1.48171e-07
7.9136e-08
6.53857e-07
8.93267e-08
6.24391e-07
-1.87474e-07
1.39227e-07
4.43097e-08
6.44201e-07
-1.78698e-07
1.01636e-07
3.92017e-08
6.70022e-07
6.63694e-08
3.53296e-08
6.88947e-07
3.27597e-08
3.27597e-08
7.01722e-07
-1.98512e-16
3.14985e-08
7.08192e-07
-3.27597e-08
3.14985e-08
7.08192e-07
-6.63694e-08
3.27597e-08
7.01722e-07
-1.01636e-07
3.53296e-08
6.88947e-07
-1.39227e-07
3.92017e-08
6.70022e-07
4.43097e-08
6.44201e-07
-1.78698e-07
1.34949e-07
-3.14311e-16
6.53946e-07
-1.74656e-07
9.80683e-08
-3.59443e-16
6.78055e-07
6.38888e-08
-3.08422e-16
6.95987e-07
3.14985e-08
-3.76363e-16
7.08192e-07
-2.05722e-16
-4.0018e-16
7.1439e-07
-3.14985e-08
-3.03848e-16
7.1439e-07
-6.38888e-08
-3.1431e-16
7.08192e-07
-9.80683e-08
-3.77602e-16
6.95987e-07
-1.34949e-07
-4.06351e-16
6.78055e-07
-3.43347e-16
6.53946e-07
-1.74656e-07
1.34949e-07
-4.43097e-08
6.53946e-07
-1.74656e-07
9.80683e-08
-3.92017e-08
6.78055e-07
6.38888e-08
-3.53296e-08
6.95987e-07
3.14985e-08
-3.27597e-08
7.08192e-07
-1.35892e-16
-3.14985e-08
7.1439e-07
-3.14985e-08
-3.14985e-08
7.1439e-07
-6.38888e-08
-3.27597e-08
7.08192e-07
-9.80683e-08
-3.53296e-08
6.95987e-07
-1.34949e-07
-3.92017e-08
6.78055e-07
-4.43097e-08
6.53946e-07
-1.74656e-07
1.39227e-07
-8.93267e-08
6.44201e-07
-1.78698e-07
1.01636e-07
-7.9136e-08
6.70022e-07
6.63694e-08
-7.14473e-08
6.88947e-07
3.27597e-08
-6.63694e-08
7.01722e-07
-2.22165e-16
-6.38888e-08
7.08192e-07
-3.27597e-08
-6.38888e-08
7.08192e-07
-6.63694e-08
-6.63694e-08
7.01722e-07
-1.01636e-07
-7.14473e-08
6.88947e-07
-1.39227e-07
-7.9136e-08
6.70022e-07
-8.93267e-08
6.44201e-07
-1.78698e-07
1.48171e-07
-1.34985e-07
6.24391e-07
-1.87474e-07
1.08984e-07
-1.20115e-07
6.53857e-07
7.14473e-08
-1.08984e-07
6.74946e-07
3.53296e-08
-1.01636e-07
6.88947e-07
-4.17821e-16
-9.80683e-08
6.95987e-07
-3.53296e-08
-9.80683e-08
6.95987e-07
-7.14473e-08
-1.01636e-07
6.88947e-07
-1.08984e-07
-1.08984e-07
6.74946e-07
-1.48171e-07
-1.20115e-07
6.53857e-07
-1.34985e-07
6.24391e-07
-1.87474e-07
1.61688e-07
-1.82772e-07
5.93533e-07
-1.98049e-07
1.20115e-07
-1.61688e-07
6.28987e-07
7.9136e-08
-1.48171e-07
6.53857e-07
3.92017e-08
-1.39227e-07
6.70022e-07
-3.16826e-16
-1.34949e-07
6.78055e-07
-3.92017e-08
-1.34949e-07
6.78055e-07
-7.9136e-08
-1.39227e-07
6.70022e-07
-1.20115e-07
-1.48171e-07
6.53857e-07
-1.61688e-07
-1.61688e-07
6.28987e-07
-1.82772e-07
5.93533e-07
-1.98049e-07
1.82772e-07
5.4998e-07
-2.22752e-07
-2.22752e-07
1.34985e-07
5.93533e-07
-1.98049e-07
8.93267e-08
6.24391e-07
-1.87474e-07
4.43097e-08
6.44201e-07
-1.78698e-07
8.51125e-17
6.53946e-07
-1.74656e-07
-4.43097e-08
6.53946e-07
-1.74656e-07
-8.93267e-08
6.44201e-07
-1.78698e-07
-1.34985e-07
6.24391e-07
-1.87474e-07
-1.82772e-07
5.93533e-07
-1.98049e-07
5.4998e-07
-2.22752e-07
-2.22752e-07
1.32269e-07
1.32269e-07
5.87081e-07
-1.5082e-07
-1.5082e-07
1.0427e-07
1.2995e-07
6.43196e-07
-1.51614e-07
7.12906e-08
1.26241e-07
6.81727e-07
-1.50597e-07
3.60026e-08
1.22643e-07
7.05509e-07
-1.48663e-07
-4.44803e-17
1.20725e-07
7.16869e-07
-1.47646e-07
-3.60026e-08
1.20725e-07
7.16869e-07
-1.47646e-07
-7.12906e-08
1.22643e-07
7.05509e-07
-1.48663e-07
-1.0427e-07
1.26241e-07
6.81727e-07
-1.50597e-07
-1.32269e-07
1.2995e-07
6.43196e-07
-1.51614e-07
1.32269e-07
5.87081e-07
-1.5082e-07
-1.5082e-07
1.2995e-07
1.0427e-07
6.43196e-07
-1.51614e-07
1.00208e-07
1.00208e-07
6.88473e-07
6.74121e-08
9.55274e-08
7.17366e-07
3.37261e-08
9.16837e-08
7.34667e-07
1.36349e-17
8.96646e-08
7.42842e-07
-3.37261e-08
8.96646e-08
7.42842e-07
-6.74121e-08
9.16837e-08
7.34667e-07
-1.00208e-07
9.55274e-08
7.17366e-07
-1.2995e-07
1.00208e-07
6.88473e-07
1.0427e-07
6.43196e-07
-1.51614e-07
1.26241e-07
7.12906e-08
6.81727e-07
-1.50597e-07
9.55274e-08
6.74121e-08
7.17366e-07
6.34085e-08
6.34085e-08
7.39184e-07
3.14996e-08
6.03627e-08
7.52177e-07
-3.43149e-17
5.87919e-08
7.58359e-07
-3.14996e-08
5.87919e-08
7.58359e-07
-6.34085e-08
6.03627e-08
7.52177e-07
-9.55274e-08
6.34085e-08
7.39184e-07
-1.26241e-07
6.74121e-08
7.17366e-07
7.12906e-08
6.81727e-07
-1.50597e-07
1.22643e-07
3.60026e-08
7.05509e-07
-1.48663e-07
9.16837e-08
3.37261e-08
7.34667e-07
6.03627e-08
3.14996e-08
7.52177e-07
2.98612e-08
2.98612e-08
7.62725e-07
-2.25954e-16
2.90248e-08
7.6782e-07
-2.98612e-08
2.90248e-08
7.6782e-07
-6.03627e-08
2.98612e-08
7.62725e-07
-9.16837e-08
3.14996e-08
7.52177e-07
-1.22643e-07
3.37261e-08
7.34667e-07
3.60026e-08
7.05509e-07
-1.48663e-07
1.20725e-07
-5.13124e-16
7.16869e-07
-1.47646e-07
8.96646e-08
-4.44598e-16
7.42842e-07
5.87919e-08
-2.71831e-16
7.58359e-07
2.90248e-08
-3.69962e-16
7.6782e-07
-3.15072e-16
-5.28192e-16
7.72439e-07
-2.90248e-08
-4.70285e-16
7.72439e-07
-5.87919e-08
-4.5639e-16
7.6782e-07
-8.96646e-08
-3.38032e-16
7.58359e-07
-1.20725e-07
-2.31484e-16
7.42842e-07
-1.69975e-16
7.16869e-07
-1.47646e-07
1.20725e-07
-3.60026e-08
7.16869e-07
-1.47646e-07
8.96646e-08
-3.37261e-08
7.42842e-07
5.87919e-08
-3.14996e-08
7.58359e-07
2.90248e-08
-2.98612e-08
7.6782e-07
-2.27865e-16
-2.90248e-08
7.72439e-07
-2.90248e-08
-2.90248e-08
7.72439e-07
-5.87919e-08
-2.98612e-08
7.6782e-07
-8.96646e-08
-3.14996e-08
7.58359e-07
-1.20725e-07
-3.37261e-08
7.42842e-07
-3.60026e-08
7.16869e-07
-1.47646e-07
1.22643e-07
-7.12906e-08
7.05509e-07
-1.48663e-07
9.16837e-08
-6.74121e-08
7.34667e-07
6.03627e-08
-6.34085e-08
7.52177e-07
2.98612e-08
-6.03627e-08
7.62725e-07
-3.20712e-16
-5.87919e-08
7.6782e-07
-2.98612e-08
-5.87919e-08
7.6782e-07
-6.03627e-08
-6.03627e-08
7.62725e-07
-9.16837e-08
-6.34085e-08
7.52177e-07
-1.22643e-07
-6.74121e-08
7.34667e-07
-7.12906e-08
7.05509e-07
-1.48663e-07
1.26241e-07
-1.0427e-07
6.81727e-07
-1.50597e-07
9.55274e-08
-1.00208e-07
7.17366e-07
6.34085e-08
-9.55274e-08
7.39184e-07
3.14996e-08
-9.16837e-08
7.52177e-07
-4.75524e-16
-8.96646e-08
7.58359e-07
-3.14996e-08
-8.96646e-08
7.58359e-07
-6.34085e-08
-9.16837e-08
7.52177e-07
-9.55274e-08
-9.55274e-08
7.39184e-07
-1.26241e-07
-1.00208e-07
7.17366e-07
-1.0427e-07
6.81727e-07
-1.50597e-07
1.2995e-07
-1.32269e-07
6.43196e-07
-1.51614e-07
1.00208e-07
-1.2995e-07
6.88473e-07
6.74121e-08
-1.26241e-07
7.17366e-07
3.37261e-08
-1.22643e-07
7.34667e-07
-3.93674e-16
-1.20725e-07
7.42842e-07
-3.37261e-08
-1.20725e-07
7.42842e-07
-6.74121e-08
-1.22643e-07
7.34667e-07
-1.00208e-07
-1.26241e-07
7.17366e-07
-1.2995e-07
-1.2995e-07
6.88473e-07
-1.32269e-07
6.43196e-07
-1.51614e-07
1.32269e-07
5.87081e-07
-1.5082e-07
-1.5082e-07
1.0427e-07
6.43196e-07
-1.51614e-07
7.12906e-08
6.81727e-07
-1.50597e-07
3.60026e-08
7.05509e-07
-1.48663e-07
-7.89272e-17
7.16869e-07
-1.47646e-07
-3.60026e-08
7.16869e-07
-1.47646e-07
-7.12906e-08
7.05509e-07
-1.48663e-07
-1.0427e-07
6.81727e-07
-1.50597e-07
-1.32269e-07
6.43196e-07
-1.51614e-07
5.87081e-07
-1.5082e-07
-1.5082e-07
1.09196e-07
1.09196e-07
5.96944e-07
-1.14127e-07
-1.14127e-07
9.18888e-08
1.15806e-07
6.67725e-07
-1.23028e-07
6.55727e-08
1.18389e-07
7.17247e-07
-1.27593e-07
3.39776e-08
1.18717e-07
7.48018e-07
-1.29632e-07
-2.10294e-16
1.18564e-07
7.62692e-07
-1.30409e-07
-3.39776e-08
1.18564e-07
7.62692e-07
-1.30409e-07
-6.55727e-08
1.18717e-07
7.48018e-07
-1.29632e-07
-9.18888e-08
1.18389e-07
7.17247e-07
-1.27593e-07
-1.09196e-07
1.15806e-07
6.67725e-07
-1.23028e-07
1.09196e-07
5.96944e-07
-1.14127e-07
-1.14127e-07
1.15806e-07
9.18888e-08
6.67725e-07
-1.23028e-07
9.55119e-08
9.55119e-08
7.2906e-07
6.71871e-08
9.60213e-08
7.68058e-07
3.44954e-08
9.51717e-08
7.90904e-07
-2.5919e-16
9.4454e-08
8.01447e-07
-3.44954e-08
9.4454e-08
8.01447e-07
-6.71871e-08
9.51717e-08
7.90904e-07
-9.55119e-08
9.60213e-08
7.68058e-07
-1.15806e-07
9.55119e-08
7.2906e-07
9.18888e-08
6.67725e-07
-1.23028e-07
1.18389e-07
6.55727e-08
7.17247e-07
-1.27593e-07
9.60213e-08
6.71871e-08
7.68058e-07
6.66728e-08
6.66728e-08
7.97881e-07
3.39742e-08
6.55217e-08
8.14525e-07
-2.33545e-16
6.47455e-08
8.22042e-07
-3.39742e-08
6.47455e-08
8.22042e-07
-6.66728e-08
6.55217e-08
8.14525e-07
-9.60213e-08
6.66728e-08
7.97881e-07
-1.18389e-07
6.71871e-08
7.68058e-07
6.55727e-08
7.17247e-07
-1.27593e-07
1.18717e-07
3.39776e-08
7.48018e-07
-1.29632e-07
9.51717e-08
3.44954e-08
7.90904e-07
6.55217e-08
3.39742e-08
8.14525e-07
3.32311e-08
3.32311e-08
8.27306e-07
-2.87366e-16
3.27621e-08
8.33035e-07
-3.32311e-08
3.27621e-08
8.33035e-07
-6.55217e-08
3.32311e-08
8.27306e-07
-9.51717e-08
3.39742e-08
8.14525e-07
-1.18717e-07
3.44954e-08
7.90904e-07
3.39776e-08
7.48018e-07
-1.29632e-07
1.18564e-07
-5.07339e-16
7.62692e-07
-1.30409e-07
9.4454e-08
-5.99839e-16
8.01447e-07
6.47455e-08
-5.52775e-16
8.22042e-07
3.27621e-08
-6.67841e-16
8.33035e-07
-3.11636e-16
-6.8923e-16
8.37963e-07
-3.27621e-08
-4.29559e-16
8.37963e-07
-6.47455e-08
-3.7379e-16
8.33035e-07
-9.4454e-08
-3.87471e-16
8.22042e-07
-1.18564e-07
-3.45163e-16
8.01447e-07
-2.61142e-16
7.62692e-07
-1.30409e-07
1.18564e-07
-3.39776e-08
7.62692e-07
-1.30409e-07
9.4454e-08
-3.44954e-08
8.01447e-07
6.47455e-08
-3.39742e-08
8.22042e-07
3.27621e-08
-3.32311e-08
8.33035e-07
-1.06585e-16
-3.27621e-08
8.37963e-07
-3.27621e-08
-3.27621e-08
8.37963e-07
-6.47455e-08
-3.32311e-08
8.33035e-07
-9.4454e-08
-3.39742e-08
8.22042e-07
-1.18564e-07
-3.44954e-08
8.01447e-07
-3.39776e-08
7.62692e-07
-1.30409e-07
1.18717e-07
-6.55727e-08
7.48018e-07
-1.29632e-07
9.51717e-08
-6.71871e-08
7.90904e-07
6.55217e-08
-6.66728e-08
8.14525e-07
3.32311e-08
-6.55217e-08
8.27306e-07
-4.15485e-17
-6.47455e-08
8.33035e-07
-3.32311e-08
-6.47455e-08
8.33035e-07
-6.55217e-08
-6.55217e-08
8.27306e-07
-9.51717e-08
-6.66728e-08
8.14525e-07
-1.18717e-07
-6.71871e-08
7.90904e-07
-6.55727e-08
7.48018e-07
-1.29632e-07
1.18389e-07
-9.18888e-08
7.17247e-07
-1.27593e-07
9.60213e-08
-9.55119e-08
7.68058e-07
6.66728e-08
-9.60213e-08
7.97881e-07
3.39742e-08
-9.51717e-08
8.14525e-07
-1.87212e-16
-9.4454e-08
8.22042e-07
-3.39742e-08
-9.4454e-08
8.22042e-07
-6.66728e-08
-9.51717e-08
8.14525e-07
-9.60213e-08
-9.60213e-08
7.97881e-07
-1.18389e-07
-9.55119e-08
7.68058e-07
-9.18888e-08
7.17247e-07
-1.27593e-07
1.15806e-07
-1.09196e-07
6.67725e-07
-1.23028e-07
9.55119e-08
-1.15806e-07
7.2906e-07
6.71871e-08
-1.18389e-07
7.68058e-07
3.44954e-08
-1.18717e-07
7.90904e-07
-4.22072e-16
-1.18564e-07
8.01447e-07
-3.44954e-08
-1.18564e-07
8.01447e-07
-6.71871e-08
-1.18717e-07
7.90904e-07
-9.55119e-08
-1.18389e-07
7.68058e-07
-1.15806e-07
-1.15806e-07
7.2906e-07
-1.09196e-07
6.67725e-07
-1.23028e-07
1.09196e-07
5.96944e-07
-1.14127e-07
-1.14127e-07
9.18888e-08
6.67725e-07
-1.23028e-07
6.55727e-08
7.17247e-07
-1.27593e-07
3.39776e-08
7.48018e-07
-1.29632e-07
-9.83978e-17
7.62692e-07
-1.30409e-07
-3.39776e-08
7.62692e-07
-1.30409e-07
-6.55727e-08
7.48018e-07
-1.29632e-07
-9.18888e-08
7.17247e-07
-1.27593e-07
-1.09196e-07
6.67725e-07
-1.23028e-07
5.96944e-07
-1.14127e-07
-1.14127e-07
6.2496e-08
6.2496e-08
5.9568e-07
-6.18639e-08
-6.18639e-08
5.51089e-08
7.10318e-08
6.74942e-07
-7.08608e-08
4.06043e-08
7.61717e-08
7.31962e-07
-7.63819e-08
2.14632e-08
7.88323e-08
7.68041e-07
-7.9714e-08
1.9091e-17
7.99298e-08
7.85404e-07
-8.11788e-08
-2.14632e-08
7.99298e-08
7.85404e-07
-8.11788e-08
-4.06043e-08
7.88323e-08
7.68041e-07
-7.9714e-08
-5.51089e-08
7.61717e-08
7.31962e-07
-7.63819e-08
-6.2496e-08
7.10318e-08
6.74942e-07
-7.08608e-08
6.2496e-08
5.9568e-07
-6.18639e-08
-6.18639e-08
7.10318e-08
5.51089e-08
6.74942e-07
-7.08608e-08
6.15435e-08
6.15435e-08
7.48037e-07
4.47828e-08
6.51408e-08
7.95849e-07
2.34646e-08
6.67721e-08
8.24283e-07
4.44872e-16
6.73642e-08
8.37477e-07
-2.34646e-08
6.73642e-08
8.37477e-07
-4.47828e-08
6.67721e-08
8.24283e-07
-6.15435e-08
6.51408e-08
7.95849e-07
-7.10318e-08
6.15435e-08
7.48037e-07
5.51089e-08
6.74942e-07
-7.08608e-08
7.61717e-08
4.06043e-08
7.31962e-07
-7.63819e-08
6.51408e-08
4.47828e-08
7.95849e-07
4.68788e-08
4.68788e-08
8.34405e-07
2.43928e-08
4.76983e-08
8.56085e-07
6.08048e-16
4.79414e-08
8.65858e-07
-2.43928e-08
4.79414e-08
8.65858e-07
-4.68788e-08
4.76983e-08
8.56085e-07
-6.51408e-08
4.68788e-08
8.34405e-07
-7.61717e-08
4.47828e-08
7.95849e-07
4.06043e-08
7.31962e-07
-7.63819e-08
7.88323e-08
2.14632e-08
7.68041e-07
-7.9714e-08
6.67721e-08
2.34646e-08
8.24283e-07
4.76983e-08
2.43928e-08
8.56085e-07
2.47147e-08
2.47147e-08
8.73274e-07
2.50039e-16
2.47904e-08
8.80901e-07
-2.47147e-08
2.47904e-08
8.80901e-07
-4.76983e-08
2.47147e-08
8.73274e-07
-6.67721e-08
2.43928e-08
8.56085e-07
-7.88323e-08
2.34646e-08
8.24283e-07
2.14632e-08
7.68041e-07
-7.9714e-08
7.99298e-08
-5.47293e-16
7.85404e-07
-8.11788e-08
6.73642e-08
-2.2271e-16
8.37477e-07
4.79414e-08
1.07171e-16
8.65858e-07
2.47904e-08
-1.99587e-17
8.80901e-07
4.89464e-17
-2.6613e-16
8.87544e-07
-2.47904e-08
-1.68631e-16
8.87544e-07
-4.79414e-08
-1.87517e-16
8.80901e-07
-6.73642e-08
-4.63946e-16
8.65858e-07
-7.99298e-08
-7.43514e-16
8.37477e-07
-5.6902e-16
7.85404e-07
-8.11788e-08
7.99298e-08
-2.14632e-08
7.85404e-07
-8.11788e-08
6.73642e-08
-2.34646e-08
8.37477e-07
4.79414e-08
-2.43928e-08
8.65858e-07
2.47904e-08
-2.47147e-08
8.80901e-07
9.35481e-17
-2.47904e-08
8.87544e-07
-2.47904e-08
-2.47904e-08
8.87544e-07
-4.79414e-08
-2.47147e-08
8.80901e-07
-6.73642e-08
-2.43928e-08
8.65858e-07
-7.99298e-08
-2.34646e-08
8.37477e-07
-2.14632e-08
7.85404e-07
-8.11788e-08
7.88323e-08
-4.06043e-08
7.68041e-07
-7.9714e-08
6.67721e-08
-4.47828e-08
8.24283e-07
4.76983e-08
-4.68788e-08
8.56085e-07
2.47147e-08
-4.76983e-08
8.73274e-07
-9.79405e-17
-4.79414e-08
8.80901e-07
-2.47147e-08
-4.79414e-08
8.80901e-07
-4.76983e-08
-4.76983e-08
8.73274e-07
-6.67721e-08
-4.68788e-08
8.56085e-07
-7.88323e-08
-4.47828e-08
8.24283e-07
-4.06043e-08
7.68041e-07
-7.9714e-08
7.61717e-08
-5.51089e-08
7.31962e-07
-7.63819e-08
6.51408e-08
-6.15435e-08
7.95849e-07
4.68788e-08
-6.51408e-08
8.34405e-07
2.43928e-08
-6.67721e-08
8.56085e-07
-5.13921e-16
-6.73642e-08
8.65858e-07
-2.43928e-08
-6.73642e-08
8.65858e-07
-4.68788e-08
-6.67721e-08
8.56085e-07
-6.51408e-08
-6.51408e-08
8.34405e-07
-7.61717e-08
-6.15435e-08
7.95849e-07
-5.51089e-08
7.31962e-07
-7.63819e-08
7.10318e-08
-6.2496e-08
6.74942e-07
-7.08608e-08
6.15435e-08
-7.10318e-08
7.48037e-07
4.47828e-08
-7.61717e-08
7.95849e-07
2.34646e-08
-7.88323e-08
8.24283e-07
-9.92158e-16
-7.99298e-08
8.37477e-07
-2.34646e-08
-7.99298e-08
8.37477e-07
-4.47828e-08
-7.88323e-08
8.24283e-07
-6.15435e-08
-7.61717e-08
7.95849e-07
-7.10318e-08
-7.10318e-08
7.48037e-07
-6.2496e-08
6.74942e-07
-7.08608e-08
6.2496e-08
5.9568e-07
-6.18639e-08
-6.18639e-08
5.51089e-08
6.74942e-07
-7.08608e-08
4.06043e-08
7.31962e-07
-7.63819e-08
2.14632e-08
7.68041e-07
-7.9714e-08
-4.28542e-16
7.85404e-07
-8.11788e-08
-2.14632e-08
7.85404e-07
-8.11788e-08
-4.06043e-08
7.68041e-07
-7.9714e-08
-5.51089e-08
7.31962e-07
-7.63819e-08
-6.2496e-08
6.74942e-07
-7.08608e-08
5.9568e-07
-6.18639e-08
-6.18639e-08
3.63038e-08
3.63038e-08
5.92221e-07
-3.45742e-08
-3.45742e-08
3.28343e-08
4.25349e-08
6.76223e-07
-4.03471e-08
2.46872e-08
4.68295e-08
7.37762e-07
-4.44819e-08
1.32163e-08
4.93909e-08
7.77246e-07
-4.71253e-08
8.6561e-17
5.05486e-08
7.96405e-07
-4.8334e-08
-1.32163e-08
5.05486e-08
7.96405e-07
-4.8334e-08
-2.46872e-08
4.93909e-08
7.77246e-07
-4.71253e-08
-3.28343e-08
4.68295e-08
7.37762e-07
-4.44819e-08
-3.63038e-08
4.25349e-08
6.76223e-07
-4.03471e-08
3.63038e-08
5.92221e-07
-3.45742e-08
-3.45742e-08
4.25349e-08
3.28343e-08
6.76223e-07
-4.03471e-08
3.81733e-08
3.81733e-08
7.5676e-07
2.84743e-08
4.16961e-08
8.10682e-07
1.51481e-08
4.3681e-08
8.43319e-07
4.86631e-16
4.45504e-08
8.58624e-07
-1.51481e-08
4.45504e-08
8.58624e-07
-2.84743e-08
4.3681e-08
8.43319e-07
-3.81733e-08
4.16961e-08
8.10682e-07
-4.25349e-08
3.81733e-08
7.5676e-07
3.28343e-08
6.76223e-07
-4.03471e-08
4.68295e-08
2.46872e-08
7.37762e-07
-4.44819e-08
4.16961e-08
2.84743e-08
8.10682e-07
3.08703e-08
3.08703e-08
8.56056e-07
1.63386e-08
3.21651e-08
8.82133e-07
5.94891e-16
3.27141e-08
8.94033e-07
-1.63386e-08
3.27141e-08
8.94033e-07
-3.08703e-08
3.21651e-08
8.82133e-07
-4.16961e-08
3.08703e-08
8.56056e-07
-4.68295e-08
2.84743e-08
8.10682e-07
2.46872e-08
7.37762e-07
-4.44819e-08
4.93909e-08
1.32163e-08
7.77246e-07
-4.71253e-08
4.3681e-08
1.51481e-08
8.43319e-07
3.21651e-08
1.63386e-08
8.82133e-07
1.69691e-08
1.69691e-08
9.03666e-07
2.76518e-16
1.72313e-08
9.13352e-07
-1.69691e-08
1.72313e-08
9.13352e-07
-3.21651e-08
1.69691e-08
9.03666e-07
-4.3681e-08
1.63386e-08
8.82133e-07
-4.93909e-08
1.51481e-08
8.43319e-07
1.32163e-08
7.77246e-07
-4.71253e-08
5.05486e-08
-3.40482e-16
7.96405e-07
-4.8334e-08
4.45504e-08
-5.21631e-17
8.58624e-07
3.27141e-08
2.19355e-16
8.94033e-07
1.72313e-08
1.5105e-16
9.13352e-07
3.06872e-16
2.51608e-17
9.22007e-07
-1.72313e-08
2.92288e-16
9.22007e-07
-3.27141e-08
3.32702e-16
9.13352e-07
-4.45504e-08
-3.45756e-17
8.94033e-07
-5.05486e-08
-5.22514e-16
8.58624e-07
-5.19688e-16
7.96405e-07
-4.8334e-08
5.05486e-08
-1.32163e-08
7.96405e-07
-4.8334e-08
4.45504e-08
-1.51481e-08
8.58624e-07
3.27141e-08
-1.63386e-08
8.94033e-07
1.72313e-08
-1.69691e-08
9.13352e-07
5.09397e-16
-1.72313e-08
9.22007e-07
-1.72313e-08
-1.72313e-08
9.22007e-07
-3.27141e-08
-1.69691e-08
9.13352e-07
-4.45504e-08
-1.63386e-08
8.94033e-07
-5.05486e-08
-1.51481e-08
8.58624e-07
-1.32163e-08
7.96405e-07
-4.8334e-08
4.93909e-08
-2.46872e-08
7.77246e-07
-4.71253e-08
4.3681e-08
-2.84743e-08
8.43319e-07
3.21651e-08
-3.08703e-08
8.82133e-07
1.69691e-08
-3.21651e-08
9.03666e-07
3.41777e-16
-3.27141e-08
9.13352e-07
-1.69691e-08
-3.27141e-08
9.13352e-07
-3.21651e-08
-3.21651e-08
9.03666e-07
-4.3681e-08
-3.08703e-08
8.82133e-07
-4.93909e-08
-2.84743e-08
8.43319e-07
-2.46872e-08
7.77246e-07
-4.71253e-08
4.68295e-08
-3.28343e-08
7.37762e-07
-4.44819e-08
4.16961e-08
-3.81733e-08
8.10682e-07
3.08703e-08
-4.16961e-08
8.56056e-07
1.63386e-08
-4.3681e-08
8.82133e-07
-9.93046e-17
-4.45504e-08
8.94033e-07
-1.63386e-08
-4.45504e-08
8.94033e-07
-3.08703e-08
-4.3681e-08
8.82133e-07
-4.16961e-08
-4.16961e-08
8.56056e-07
-4.68295e-08
-3.81733e-08
8.10682e-07
-3.28343e-08
7.37762e-07
-4.44819e-08
4.25349e-08
-3.63038e-08
6.76223e-07
-4.03471e-08
3.81733e-08
-4.25349e-08
7.5676e-07
2.84743e-08
-4.68295e-08
8.10682e-07
1.51481e-08
-4.93909e-08
8.43319e-07
-7.22001e-16
-5.05486e-08
8.58624e-07
-1.51481e-08
-5.05486e-08
8.58624e-07
-2.84743e-08
-4.93909e-08
8.43319e-07
-3.81733e-08
-4.68295e-08
8.10682e-07
-4.25349e-08
-4.25349e-08
7.5676e-07
-3.63038e-08
6.76223e-07
-4.03471e-08
3.63038e-08
5.92221e-07
-3.45742e-08
-3.45742e-08
3.28343e-08
6.76223e-07
-4.03471e-08
2.46872e-08
7.37762e-07
-4.44819e-08
1.32163e-08
7.77246e-07
-4.71253e-08
-1.4141e-16
7.96405e-07
-4.8334e-08
-1.32163e-08
7.96405e-07
-4.8334e-08
-2.46872e-08
7.77246e-07
-4.71253e-08
-3.28343e-08
7.37762e-07
-4.44819e-08
-3.63038e-08
6.76223e-07
-4.03471e-08
5.92221e-07
-3.45742e-08
-3.45742e-08
1.75484e-08
1.75484e-08
5.88961e-07
-1.59185e-08
-1.59185e-08
1.65026e-08
2.16299e-08
6.74911e-07
-1.92717e-08
1.27735e-08
2.4766e-08
7.38646e-07
-2.1921e-08
6.9609e-09
2.68288e-08
7.7996e-07
-2.37295e-08
2.77492e-16
2.78231e-08
8.00139e-07
-2.45962e-08
-6.9609e-09
2.78231e-08
8.00139e-07
-2.45962e-08
-1.27735e-08
2.68288e-08
7.7996e-07
-2.37295e-08
-1.65026e-08
2.4766e-08
7.38646e-07
-2.1921e-08
-1.75484e-08
2.16299e-08
6.74911e-07
-1.92717e-08
1.75484e-08
5.88961e-07
-1.59185e-08
-1.59185e-08
2.16299e-08
1.65026e-08
6.74911e-07
-1.92717e-08
2.0368e-08
2.0368e-08
7.59284e-07
1.57203e-08
2.32674e-08
8.16828e-07
8.53683e-09
2.51161e-08
8.52215e-07
9.98925e-16
2.59981e-08
8.68986e-07
-8.53683e-09
2.59981e-08
8.68986e-07
-1.57203e-08
2.51161e-08
8.52215e-07
-2.0368e-08
2.32674e-08
8.16828e-07
-2.16299e-08
2.0368e-08
7.59284e-07
1.65026e-08
6.74911e-07
-1.92717e-08
2.4766e-08
1.27735e-08
7.38646e-07
-2.1921e-08
2.32674e-08
1.57203e-08
8.16828e-07
1.78853e-08
1.78853e-08
8.66821e-07
9.67895e-09
1.92367e-08
8.96218e-07
1.14431e-15
1.98729e-08
9.09837e-07
-9.67895e-09
1.98729e-08
9.09837e-07
-1.78853e-08
1.92367e-08
8.96218e-07
-2.32674e-08
1.78853e-08
8.66821e-07
-2.4766e-08
1.57203e-08
8.16828e-07
1.27735e-08
7.38646e-07
-2.1921e-08
2.68288e-08
6.9609e-09
7.7996e-07
-2.37295e-08
2.51161e-08
8.53683e-09
8.52215e-07
1.92367e-08
9.67895e-09
8.96218e-07
1.03847e-08
1.03847e-08
9.2137e-07
6.18106e-16
1.07143e-08
9.32896e-07
-1.03847e-08
1.07143e-08
9.32896e-07
-1.92367e-08
1.03847e-08
9.2137e-07
-2.51161e-08
9.67895e-09
8.96218e-07
-2.68288e-08
8.53683e-09
8.52215e-07
6.9609e-09
7.7996e-07
-2.37295e-08
2.78231e-08
-1.65918e-16
8.00139e-07
-2.45962e-08
2.59981e-08
2.96545e-16
8.68986e-07
1.98729e-08
6.36123e-16
9.09837e-07
1.07143e-08
5.58593e-16
9.32896e-07
4.78458e-16
3.54097e-16
9.43435e-07
-1.07143e-08
4.84469e-16
9.43435e-07
-1.98729e-08
3.48369e-16
9.32896e-07
-2.59981e-08
1.92256e-17
9.09837e-07
-2.78231e-08
-3.9034e-16
8.68986e-07
-4.0036e-16
8.00139e-07
-2.45962e-08
2.78231e-08
-6.9609e-09
8.00139e-07
-2.45962e-08
2.59981e-08
-8.53683e-09
8.68986e-07
1.98729e-08
-9.67895e-09
9.09837e-07
1.07143e-08
-1.03847e-08
9.32896e-07
5.53487e-16
-1.07143e-08
9.43435e-07
-1.07143e-08
-1.07143e-08
9.43435e-07
-1.98729e-08
-1.03847e-08
9.32896e-07
-2.59981e-08
-9.67895e-09
9.09837e-07
-2.78231e-08
-8.53683e-09
8.68986e-07
-6.9609e-09
8.00139e-07
-2.45962e-08
2.68288e-08
-1.27735e-08
7.7996e-07
-2.37295e-08
2.51162e-08
-1.57203e-08
8.52215e-07
1.92367e-08
-1.78853e-08
8.96218e-07
1.03847e-08
-1.92367e-08
9.2137e-07
2.87665e-16
-1.98729e-08
9.32896e-07
-1.03847e-08
-1.98729e-08
9.32896e-07
-1.92367e-08
-1.92367e-08
9.2137e-07
-2.51161e-08
-1.78853e-08
8.96218e-07
-2.68288e-08
-1.57203e-08
8.52215e-07
-1.27735e-08
7.7996e-07
-2.37295e-08
2.4766e-08
-1.65026e-08
7.38646e-07
-2.1921e-08
2.32674e-08
-2.0368e-08
8.16828e-07
1.78853e-08
-2.32674e-08
8.66821e-07
9.67895e-09
-2.51161e-08
8.96218e-07
-1.10782e-16
-2.59981e-08
9.09837e-07
-9.67895e-09
-2.59981e-08
9.09837e-07
-1.78853e-08
-2.51161e-08
8.96218e-07
-2.32674e-08
-2.32674e-08
8.66821e-07
-2.4766e-08
-2.0368e-08
8.16828e-07
-1.65026e-08
7.38646e-07
-2.1921e-08
2.16299e-08
-1.75484e-08
6.74911e-07
-1.92717e-08
2.0368e-08
-2.16299e-08
7.59284e-07
1.57203e-08
-2.4766e-08
8.16828e-07
8.53683e-09
-2.68288e-08
8.52215e-07
-5.23387e-16
-2.78231e-08
8.68986e-07
-8.53683e-09
-2.78231e-08
8.68986e-07
-1.57203e-08
-2.68288e-08
8.52215e-07
-2.0368e-08
-2.4766e-08
8.16828e-07
-2.16299e-08
-2.16299e-08
7.59284e-07
-1.75484e-08
6.74911e-07
-1.92717e-08
1.75484e-08
5.88961e-07
-1.59185e-08
-1.59185e-08
1.65026e-08
6.74911e-07
-1.92717e-08
1.27735e-08
7.38646e-07
-2.1921e-08
6.9609e-09
7.7996e-07
-2.37295e-08
4.22522e-17
8.00139e-07
-2.45962e-08
-6.9609e-09
8.00139e-07
-2.45962e-08
-1.27735e-08
7.7996e-07
-2.37295e-08
-1.65026e-08
7.38646e-07
-2.1921e-08
-1.75484e-08
6.74911e-07
-1.92717e-08
5.88961e-07
-1.59185e-08
-1.59185e-08
7.3788e-09
7.3788e-09
5.86938e-07
-6.36751e-09
-6.36751e-09
7.22031e-09
9.57187e-09
6.73469e-07
-7.97117e-09
5.75732e-09
1.14204e-08
7.38048e-07
-9.35935e-09
3.19475e-09
1.27278e-08
7.80156e-07
-1.03611e-08
3.67729e-16
1.33867e-08
8.00807e-07
-1.08598e-08
-3.19475e-09
1.33867e-08
8.00807e-07
-1.08598e-08
-5.75732e-09
1.27278e-08
7.80156e-07
-1.03611e-08
-7.22031e-09
1.14204e-08
7.38048e-07
-9.35935e-09
-7.3788e-09
9.57187e-09
6.73469e-07
-7.97117e-09
7.3788e-09
5.86938e-07
-6.36751e-09
-6.36751e-09
9.57187e-09
7.22031e-09
6.73469e-07
-7.97117e-09
9.4923e-09
9.4923e-09
7.59443e-07
7.59923e-09
1.13742e-08
8.18767e-07
4.21742e-09
1.26754e-08
8.55649e-07
7.72925e-16
1.33276e-08
8.73262e-07
-4.21742e-09
1.33276e-08
8.73262e-07
-7.59923e-09
1.26754e-08
8.55649e-07
-9.4923e-09
1.13742e-08
8.18767e-07
-9.57187e-09
9.4923e-09
7.59443e-07
7.22031e-09
6.73469e-07
-7.97117e-09
1.14204e-08
5.75732e-09
7.38048e-07
-9.35935e-09
1.13742e-08
7.59923e-09
8.18767e-07
9.1016e-09
9.1016e-09
8.71366e-07
5.04192e-09
1.01224e-08
9.02831e-07
7.14142e-16
1.06286e-08
9.17578e-07
-5.04192e-09
1.06286e-08
9.17578e-07
-9.1016e-09
1.01224e-08
9.02831e-07
-1.13742e-08
9.1016e-09
8.71366e-07
-1.14204e-08
7.59923e-09
8.18767e-07
5.75732e-09
7.38048e-07
-9.35935e-09
1.27278e-08
3.19475e-09
7.80156e-07
-1.03611e-08
1.26754e-08
4.21742e-09
8.55649e-07
1.01224e-08
5.04192e-09
9.02831e-07
5.59667e-09
5.59667e-09
9.30421e-07
4.61976e-16
5.86973e-09
9.43251e-07
-5.59667e-09
5.86973e-09
9.43251e-07
-1.01224e-08
5.59667e-09
9.30421e-07
-1.26754e-08
5.04192e-09
9.02831e-07
-1.27278e-08
4.21742e-09
8.55649e-07
3.19475e-09
7.80156e-07
-1.03611e-08
1.33867e-08
-1.64492e-16
8.00807e-07
-1.08598e-08
1.33276e-08
4.64152e-17
8.73262e-07
1.06286e-08
4.44391e-16
9.17578e-07
5.86974e-09
4.87113e-16
9.43251e-07
5.77351e-16
5.0775e-16
9.55175e-07
-5.86973e-09
6.4961e-16
9.55175e-07
-1.06286e-08
4.58226e-16
9.43251e-07
-1.33276e-08
2.05975e-16
9.17578e-07
-1.33867e-08
-1.42899e-16
8.73262e-07
-2.87355e-16
8.00807e-07
-1.08598e-08
1.33867e-08
-3.19475e-09
8.00807e-07
-1.08598e-08
1.33276e-08
-4.21742e-09
8.73262e-07
1.06286e-08
-5.04192e-09
9.17578e-07
5.86974e-09
-5.59667e-09
9.43251e-07
6.90646e-16
-5.86973e-09
9.55175e-07
-5.86973e-09
-5.86973e-09
9.55175e-07
-1.06286e-08
-5.59667e-09
9.43251e-07
-1.33276e-08
-5.04192e-09
9.17578e-07
-1.33867e-08
-4.21742e-09
8.73262e-07
-3.19475e-09
8.00807e-07
-1.08598e-08
1.27278e-08
-5.75732e-09
7.80156e-07
-1.03611e-08
1.26754e-08
-7.59923e-09
8.55649e-07
1.01224e-08
-9.1016e-09
9.02831e-07
5.59667e-09
-1.01224e-08
9.30421e-07
4.09733e-16
-1.06286e-08
9.43251e-07
-5.59667e-09
-1.06286e-08
9.43251e-07
-1.01224e-08
-1.01224e-08
9.30421e-07
-1.26754e-08
-9.1016e-09
9.02831e-07
-1.27278e-08
-7.59923e-09
8.55649e-07
-5.75732e-09
7.80156e-07
-1.03611e-08
1.14204e-08
-7.22031e-09
7.38048e-07
-9.35935e-09
1.13742e-08
-9.4923e-09
8.18767e-07
9.1016e-09
-1.13742e-08
8.71366e-07
5.04192e-09
-1.26754e-08
9.02831e-07
6.33731e-17
-1.33276e-08
9.17578e-07
-5.04192e-09
-1.33276e-08
9.17578e-07
-9.1016e-09
-1.26754e-08
9.02831e-07
-1.13742e-08
-1.13742e-08
8.71366e-07
-1.14204e-08
-9.4923e-09
8.18767e-07
-7.22031e-09
7.38048e-07
-9.35935e-09
9.57187e-09
-7.3788e-09
6.73469e-07
-7.97117e-09
9.4923e-09
-9.57187e-09
7.59443e-07
7.59923e-09
-1.14204e-08
8.18767e-07
4.21742e-09
-1.27278e-08
8.55649e-07
-2.30342e-16
-1.33867e-08
8.73262e-07
-4.21742e-09
-1.33867e-08
8.73262e-07
-7.59923e-09
-1.27278e-08
8.55649e-07
-9.4923e-09
-1.14204e-08
8.18767e-07
-9.57187e-09
-9.57187e-09
7.59443e-07
-7.3788e-09
6.73469e-07
-7.97117e-09
7.3788e-09
5.86938e-07
-6.36751e-09
-6.36751e-09
7.22031e-09
6.73469e-07
-7.97117e-09
5.75732e-09
7.38048e-07
-9.35935e-09
3.19475e-09
7.80156e-07
-1.03611e-08
2.45342e-17
8.00807e-07
-1.08598e-08
-3.19475e-09
8.00807e-07
-1.08598e-08
-5.75732e-09
7.80156e-07
-1.03611e-08
-7.22031e-09
7.38048e-07
-9.35935e-09
-7.3788e-09
6.73469e-07
-7.97117e-09
5.86938e-07
-6.36751e-09
-6.36751e-09
2.73115e-09
2.73115e-09
5.85877e-07
-2.20059e-09
-2.20059e-09
2.81094e-09
3.7713e-09
6.72502e-07
-2.88416e-09
2.32352e-09
4.71543e-09
7.37345e-07
-3.52511e-09
1.31684e-09
5.41995e-09
7.7975e-07
-4.00813e-09
3.96835e-16
5.78686e-09
8.00594e-07
-4.25647e-09
-1.31684e-09
5.78686e-09
8.00594e-07
-4.25647e-09
-2.32352e-09
5.41995e-09
7.7975e-07
-4.00813e-09
-2.81094e-09
4.71543e-09
7.37345e-07
-3.5251e-09
-2.73115e-09
3.7713e-09
6.72502e-07
-2.88416e-09
2.73115e-09
5.85877e-07
-2.20059e-09
-2.20059e-09
3.7713e-09
2.81094e-09
6.72502e-07
-2.88416e-09
3.97404e-09
3.97404e-09
7.59038e-07
3.31384e-09
5.01176e-09
8.19131e-07
1.88264e-09
5.77062e-09
8.5673e-07
8.60655e-16
6.16358e-09
8.74768e-07
-1.88264e-09
6.16358e-09
8.74768e-07
-3.31384e-09
5.77062e-09
8.5673e-07
-3.97404e-09
5.01176e-09
8.19131e-07
-3.7713e-09
3.97404e-09
7.59038e-07
2.81094e-09
6.72502e-07
-2.88416e-09
4.71543e-09
2.32352e-09
7.37345e-07
-3.52511e-09
5.01176e-09
3.31384e-09
8.19131e-07
4.18464e-09
4.18464e-09
8.7302e-07
2.37418e-09
4.81036e-09
9.05602e-07
7.38364e-16
5.13071e-09
9.20985e-07
-2.37418e-09
5.13071e-09
9.20985e-07
-4.18464e-09
4.81036e-09
9.05602e-07
-5.01176e-09
4.18464e-09
8.7302e-07
-4.71543e-09
3.31384e-09
8.19131e-07
2.32352e-09
7.37345e-07
-3.5251e-09
5.41995e-09
1.31684e-09
7.7975e-07
-4.00813e-09
5.77062e-09
1.88264e-09
8.5673e-07
4.81036e-09
2.37418e-09
9.05602e-07
2.72356e-09
2.72356e-09
9.34595e-07
5.73234e-16
2.90097e-09
9.48205e-07