/*--------------------------------*- C++ -*----------------------------------*\
| =========                 |                                                 |
| \\      /  F ield         | OpenFOAM: The Open Source CFD Toolbox           |
|  \\    /   O peration     | Version:  2412                                  |
|   \\  /    A nd           | Website:  www.openfoam.com                      |
|    \\/     M anipulation  |                                                 |
\*---------------------------------------------------------------------------*/
FoamFile
{
    version     2.0;
    format      ascii;
    arch        "LSB;label=32;scalar=64";
    class       volVectorField;
    location    "9.6";
    object      U;
}
// * * * * * * * * * * * * * * * * * * * * * * * * * * * * * * * * * * * * * //

dimensions      [0 1 -1 0 0 0 0];

internalField   nonuniform List<vector> 
15000
(
(0.00119888 0.00119888 0.0103782)
(0.000885147 0.00111909 0.0103259)
(0.00060285 0.00109119 0.0102829)
(0.000353914 0.00106434 0.0102552)
(0.000116242 0.00105207 0.0102425)
(-0.000116242 0.00105207 0.0102425)
(-0.000353914 0.00106434 0.0102552)
(-0.00060285 0.00109119 0.0102829)
(-0.000885147 0.00111909 0.0103259)
(-0.00119888 0.00119888 0.0103782)
(0.00111909 0.000885147 0.0103259)
(0.000832389 0.000832389 0.01026)
(0.000569841 0.000795039 0.0102185)
(0.000332591 0.000769001 0.0101967)
(0.00010918 0.00075655 0.0101877)
(-0.00010918 0.00075655 0.0101877)
(-0.000332591 0.000769001 0.0101967)
(-0.000569841 0.000795039 0.0102185)
(-0.000832389 0.000832389 0.01026)
(-0.00111909 0.000885147 0.0103259)
(0.00109119 0.00060285 0.0102829)
(0.000795039 0.000569841 0.0102185)
(0.000540862 0.000540862 0.0101855)
(0.000314238 0.000520306 0.0101706)
(0.000103 0.000510118 0.0101648)
(-0.000103 0.000510118 0.0101648)
(-0.000314238 0.000520306 0.0101706)
(-0.000540862 0.000540862 0.0101855)
(-0.000795039 0.000569841 0.0102185)
(-0.00109119 0.00060285 0.0102829)
(0.00106434 0.000353914 0.0102552)
(0.000769001 0.000332591 0.0101967)
(0.000520306 0.000314238 0.0101706)
(0.000301184 0.000301184 0.0101595)
(9.85732e-05 0.000294625 0.0101553)
(-9.85732e-05 0.000294625 0.0101553)
(-0.000301184 0.000301184 0.0101595)
(-0.000520306 0.000314238 0.0101706)
(-0.000769001 0.000332591 0.0101967)
(-0.00106434 0.000353914 0.0102552)
(0.00105207 0.000116242 0.0102425)
(0.00075655 0.00010918 0.0101877)
(0.000510118 0.000103 0.0101648)
(0.000294625 9.85732e-05 0.0101553)
(9.63361e-05 9.63361e-05 0.0101515)
(-9.63361e-05 9.63361e-05 0.0101515)
(-0.000294625 9.85732e-05 0.0101553)
(-0.000510118 0.000103 0.0101648)
(-0.00075655 0.00010918 0.0101877)
(-0.00105207 0.000116242 0.0102425)
(0.00105207 -0.000116242 0.0102425)
(0.00075655 -0.00010918 0.0101877)
(0.000510118 -0.000103 0.0101648)
(0.000294625 -9.85732e-05 0.0101553)
(9.63361e-05 -9.63361e-05 0.0101515)
(-9.63361e-05 -9.63361e-05 0.0101515)
(-0.000294625 -9.85732e-05 0.0101553)
(-0.000510118 -0.000103 0.0101648)
(-0.00075655 -0.00010918 0.0101877)
(-0.00105207 -0.000116242 0.0102425)
(0.00106434 -0.000353914 0.0102552)
(0.000769001 -0.000332591 0.0101967)
(0.000520306 -0.000314238 0.0101706)
(0.000301184 -0.000301184 0.0101595)
(9.85732e-05 -0.000294625 0.0101553)
(-9.85732e-05 -0.000294625 0.0101553)
(-0.000301184 -0.000301184 0.0101595)
(-0.000520306 -0.000314238 0.0101706)
(-0.000769001 -0.000332591 0.0101967)
(-0.00106434 -0.000353914 0.0102552)
(0.00109119 -0.00060285 0.0102829)
(0.000795039 -0.000569841 0.0102185)
(0.000540862 -0.000540862 0.0101855)
(0.000314238 -0.000520306 0.0101706)
(0.000103 -0.000510118 0.0101648)
(-0.000103 -0.000510118 0.0101648)
(-0.000314238 -0.000520306 0.0101706)
(-0.000540862 -0.000540862 0.0101855)
(-0.000795039 -0.000569841 0.0102185)
(-0.00109119 -0.00060285 0.0102829)
(0.00111909 -0.000885147 0.0103259)
(0.000832389 -0.000832389 0.01026)
(0.000569841 -0.000795039 0.0102185)
(0.000332591 -0.000769001 0.0101967)
(0.00010918 -0.00075655 0.0101877)
(-0.00010918 -0.00075655 0.0101877)
(-0.000332591 -0.000769001 0.0101967)
(-0.000569841 -0.000795039 0.0102185)
(-0.000832389 -0.000832389 0.01026)
(-0.00111909 -0.000885147 0.0103259)
(0.00119888 -0.00119888 0.0103782)
(0.000885147 -0.00111909 0.0103259)
(0.00060285 -0.00109119 0.0102829)
(0.000353914 -0.00106434 0.0102552)
(0.000116242 -0.00105207 0.0102425)
(-0.000116242 -0.00105207 0.0102425)
(-0.000353914 -0.00106434 0.0102552)
(-0.00060285 -0.00109119 0.0102829)
(-0.000885147 -0.00111909 0.0103259)
(-0.00119888 -0.00119888 0.0103782)
(0.000829812 0.000829812 0.0126966)
(0.000658438 0.000879414 0.0126613)
(0.000469693 0.000908124 0.0125622)
(0.000281202 0.000918979 0.0124677)
(9.31471e-05 0.0009236 0.0124143)
(-9.31471e-05 0.0009236 0.0124143)
(-0.000281202 0.000918979 0.0124677)
(-0.000469693 0.000908124 0.0125622)
(-0.000658438 0.000879414 0.0126613)
(-0.000829812 0.000829812 0.0126966)
(0.000879414 0.000658438 0.0126613)
(0.000683699 0.000683699 0.0124884)
(0.000479534 0.000690057 0.0122957)
(0.000282772 0.000687547 0.0121518)
(9.31819e-05 0.000685238 0.0120779)
(-9.31819e-05 0.000685238 0.0120779)
(-0.000282772 0.000687547 0.0121518)
(-0.000479534 0.000690057 0.0122957)
(-0.000683699 0.000683699 0.0124884)
(-0.000879414 0.000658438 0.0126613)
(0.000908124 0.000469693 0.0125622)
(0.000690057 0.000479534 0.0122957)
(0.000476669 0.000476669 0.0120575)
(0.000278155 0.000470336 0.0118955)
(9.12807e-05 0.000466376 0.0118156)
(-9.12807e-05 0.000466376 0.0118156)
(-0.000278155 0.000470336 0.0118955)
(-0.000476669 0.000476669 0.0120575)
(-0.000690057 0.000479534 0.0122957)
(-0.000908124 0.000469693 0.0125622)
(0.000918979 0.000281202 0.0124677)
(0.000687547 0.000282772 0.0121518)
(0.000470336 0.000278155 0.0118955)
(0.000272852 0.000272852 0.0117288)
(8.93261e-05 0.00026979 0.0116483)
(-8.93261e-05 0.00026979 0.0116483)
(-0.000272852 0.000272852 0.0117288)
(-0.000470336 0.000278155 0.0118955)
(-0.000687547 0.000282772 0.0121518)
(-0.000918979 0.000281202 0.0124677)
(0.0009236 9.31471e-05 0.0124143)
(0.000685238 9.31819e-05 0.0120779)
(0.000466376 9.12807e-05 0.0118156)
(0.00026979 8.93261e-05 0.0116483)
(8.82228e-05 8.82228e-05 0.011568)
(-8.82228e-05 8.82228e-05 0.011568)
(-0.00026979 8.93261e-05 0.0116483)
(-0.000466376 9.12807e-05 0.0118156)
(-0.000685238 9.31819e-05 0.0120779)
(-0.0009236 9.31471e-05 0.0124143)
(0.0009236 -9.31471e-05 0.0124143)
(0.000685238 -9.31819e-05 0.0120779)
(0.000466376 -9.12807e-05 0.0118156)
(0.00026979 -8.93261e-05 0.0116483)
(8.82228e-05 -8.82228e-05 0.011568)
(-8.82228e-05 -8.82228e-05 0.011568)
(-0.00026979 -8.93261e-05 0.0116483)
(-0.000466376 -9.12807e-05 0.0118156)
(-0.000685238 -9.31819e-05 0.0120779)
(-0.0009236 -9.31471e-05 0.0124143)
(0.000918979 -0.000281202 0.0124677)
(0.000687547 -0.000282772 0.0121518)
(0.000470336 -0.000278155 0.0118955)
(0.000272852 -0.000272852 0.0117288)
(8.93261e-05 -0.00026979 0.0116483)
(-8.93261e-05 -0.00026979 0.0116483)
(-0.000272852 -0.000272852 0.0117288)
(-0.000470336 -0.000278155 0.0118955)
(-0.000687547 -0.000282772 0.0121518)
(-0.000918979 -0.000281202 0.0124677)
(0.000908124 -0.000469693 0.0125622)
(0.000690057 -0.000479534 0.0122957)
(0.000476669 -0.000476669 0.0120575)
(0.000278155 -0.000470336 0.0118955)
(9.12807e-05 -0.000466376 0.0118156)
(-9.12807e-05 -0.000466376 0.0118156)
(-0.000278155 -0.000470336 0.0118955)
(-0.000476669 -0.000476669 0.0120575)
(-0.000690057 -0.000479534 0.0122957)
(-0.000908124 -0.000469693 0.0125622)
(0.000879414 -0.000658438 0.0126613)
(0.000683699 -0.000683699 0.0124884)
(0.000479534 -0.000690057 0.0122957)
(0.000282772 -0.000687547 0.0121518)
(9.31819e-05 -0.000685238 0.0120779)
(-9.31819e-05 -0.000685238 0.0120779)
(-0.000282772 -0.000687547 0.0121518)
(-0.000479534 -0.000690057 0.0122957)
(-0.000683699 -0.000683699 0.0124884)
(-0.000879414 -0.000658438 0.0126613)
(0.000829812 -0.000829812 0.0126966)
(0.000658438 -0.000879414 0.0126613)
(0.000469693 -0.000908124 0.0125622)
(0.000281202 -0.000918979 0.0124677)
(9.31471e-05 -0.0009236 0.0124143)
(-9.31471e-05 -0.0009236 0.0124143)
(-0.000281202 -0.000918979 0.0124677)
(-0.000469693 -0.000908124 0.0125622)
(-0.000658438 -0.000879414 0.0126613)
(-0.000829812 -0.000829812 0.0126966)
(0.000672337 0.000672337 0.0125248)
(0.000564671 0.0007634 0.0128287)
(0.000426873 0.000824735 0.0129423)
(0.000264393 0.000860117 0.0129648)
(8.91252e-05 0.000876542 0.0129617)
(-8.91252e-05 0.000876542 0.0129617)
(-0.000264393 0.000860117 0.0129648)
(-0.000426873 0.000824735 0.0129423)
(-0.000564671 0.0007634 0.0128287)
(-0.000672337 0.000672337 0.0125248)
(0.0007634 0.000564671 0.0128287)
(0.000637409 0.000637409 0.0129621)
(0.000471856 0.00067883 0.0129252)
(0.000288098 0.000698888 0.0128503)
(9.65728e-05 0.000707044 0.0128008)
(-9.65728e-05 0.000707044 0.0128008)
(-0.000288098 0.000698888 0.0128503)
(-0.000471856 0.00067883 0.0129252)
(-0.000637409 0.000637409 0.0129621)
(-0.0007634 0.000564671 0.0128287)
(0.000824735 0.000426873 0.0129423)
(0.00067883 0.000471856 0.0129252)
(0.000494974 0.000494974 0.0127841)
(0.00029887 0.000504439 0.0126502)
(9.97049e-05 0.000507628 0.0125752)
(-9.97049e-05 0.000507628 0.0125752)
(-0.00029887 0.000504439 0.0126502)
(-0.000494974 0.000494974 0.0127841)
(-0.00067883 0.000471856 0.0129252)
(-0.000824735 0.000426873 0.0129423)
(0.000860117 0.000264393 0.0129648)
(0.000698888 0.000288098 0.0128503)
(0.000504439 0.00029887 0.0126502)
(0.000302541 0.000302541 0.0124872)
(0.000100636 0.000303466 0.0124008)
(-0.000100636 0.000303466 0.0124008)
(-0.000302541 0.000302541 0.0124872)
(-0.000504439 0.00029887 0.0126502)
(-0.000698888 0.000288098 0.0128503)
(-0.000860117 0.000264393 0.0129648)
(0.000876542 8.91252e-05 0.0129617)
(0.000707044 9.65728e-05 0.0128008)
(0.000507628 9.97049e-05 0.0125752)
(0.000303466 0.000100636 0.0124008)
(0.000100803 0.000100803 0.0123105)
(-0.000100803 0.000100803 0.0123105)
(-0.000303466 0.000100636 0.0124008)
(-0.000507628 9.97049e-05 0.0125752)
(-0.000707044 9.65728e-05 0.0128008)
(-0.000876542 8.91252e-05 0.0129617)
(0.000876542 -8.91252e-05 0.0129617)
(0.000707044 -9.65728e-05 0.0128008)
(0.000507628 -9.97049e-05 0.0125752)
(0.000303466 -0.000100636 0.0124008)
(0.000100803 -0.000100803 0.0123105)
(-0.000100803 -0.000100803 0.0123105)
(-0.000303466 -0.000100636 0.0124008)
(-0.000507628 -9.97049e-05 0.0125752)
(-0.000707044 -9.65728e-05 0.0128008)
(-0.000876542 -8.91252e-05 0.0129617)
(0.000860117 -0.000264393 0.0129648)
(0.000698888 -0.000288098 0.0128503)
(0.000504439 -0.00029887 0.0126502)
(0.000302541 -0.000302541 0.0124872)
(0.000100636 -0.000303466 0.0124008)
(-0.000100636 -0.000303466 0.0124008)
(-0.000302541 -0.000302541 0.0124872)
(-0.000504439 -0.00029887 0.0126502)
(-0.000698888 -0.000288098 0.0128503)
(-0.000860117 -0.000264393 0.0129648)
(0.000824735 -0.000426873 0.0129423)
(0.00067883 -0.000471856 0.0129252)
(0.000494974 -0.000494974 0.0127841)
(0.00029887 -0.000504439 0.0126502)
(9.97049e-05 -0.000507628 0.0125752)
(-9.97049e-05 -0.000507628 0.0125752)
(-0.00029887 -0.000504439 0.0126502)
(-0.000494974 -0.000494974 0.0127841)
(-0.00067883 -0.000471856 0.0129252)
(-0.000824735 -0.000426873 0.0129423)
(0.0007634 -0.000564671 0.0128287)
(0.000637409 -0.000637409 0.0129621)
(0.000471856 -0.00067883 0.0129252)
(0.000288098 -0.000698888 0.0128503)
(9.65728e-05 -0.000707044 0.0128008)
(-9.65728e-05 -0.000707044 0.0128008)
(-0.000288098 -0.000698888 0.0128503)
(-0.000471856 -0.00067883 0.0129252)
(-0.000637409 -0.000637409 0.0129621)
(-0.0007634 -0.000564671 0.0128287)
(0.000672337 -0.000672337 0.0125248)
(0.000564671 -0.0007634 0.0128287)
(0.000426873 -0.000824735 0.0129423)
(0.000264393 -0.000860117 0.0129648)
(8.91252e-05 -0.000876542 0.0129617)
(-8.91252e-05 -0.000876542 0.0129617)
(-0.000264393 -0.000860117 0.0129648)
(-0.000426873 -0.000824735 0.0129423)
(-0.000564671 -0.0007634 0.0128287)
(-0.000672337 -0.000672337 0.0125248)
(0.000377932 0.000377932 0.0127556)
(0.000329614 0.000459324 0.0132621)
(0.000260697 0.00051864 0.0135233)
(0.000165485 0.000557299 0.013637)
(5.65e-05 0.000575828 0.0136762)
(-5.65e-05 0.000575828 0.0136762)
(-0.000165485 0.000557299 0.013637)
(-0.000260697 0.00051864 0.0135233)
(-0.000329614 0.000459324 0.0132621)
(-0.000377932 0.000377932 0.0127556)
(0.000459324 0.000329614 0.0132621)
(0.00040322 0.00040322 0.0136237)
(0.000311203 0.000452799 0.0137256)
(0.000195032 0.000482116 0.013724)
(6.62202e-05 0.000495596 0.0137048)
(-6.62202e-05 0.000495596 0.0137048)
(-0.000195032 0.000482116 0.013724)
(-0.000311203 0.000452799 0.0137256)
(-0.00040322 0.00040322 0.0136237)
(-0.000459324 0.000329614 0.0132621)
(0.00051864 0.000260697 0.0135233)
(0.000452799 0.000311203 0.0137256)
(0.000344669 0.000344669 0.0136965)
(0.000213896 0.00036368 0.0136109)
(7.23189e-05 0.000372175 0.0135524)
(-7.23189e-05 0.000372175 0.0135524)
(-0.000213896 0.00036368 0.0136109)
(-0.000344669 0.000344669 0.0136965)
(-0.000452799 0.000311203 0.0137256)
(-0.00051864 0.000260697 0.0135233)
(0.000557299 0.000165485 0.013637)
(0.000482116 0.000195032 0.013724)
(0.00036368 0.000213896 0.0136109)
(0.000224388 0.000224388 0.0134768)
(7.56801e-05 0.000229004 0.0133973)
(-7.56801e-05 0.000229004 0.0133973)
(-0.000224388 0.000224388 0.0134768)
(-0.00036368 0.000213896 0.0136109)
(-0.000482116 0.000195032 0.013724)
(-0.000557299 0.000165485 0.013637)
(0.000575828 5.65e-05 0.0136762)
(0.000495596 6.62202e-05 0.0137048)
(0.000372175 7.23189e-05 0.0135524)
(0.000229004 7.56801e-05 0.0133973)
(7.71485e-05 7.71485e-05 0.0133093)
(-7.71485e-05 7.71485e-05 0.0133093)
(-0.000229004 7.56801e-05 0.0133973)
(-0.000372175 7.23189e-05 0.0135524)
(-0.000495596 6.62202e-05 0.0137048)
(-0.000575828 5.65e-05 0.0136762)
(0.000575828 -5.65e-05 0.0136762)
(0.000495596 -6.62202e-05 0.0137048)
(0.000372175 -7.23189e-05 0.0135524)
(0.000229004 -7.56801e-05 0.0133973)
(7.71485e-05 -7.71485e-05 0.0133093)
(-7.71485e-05 -7.71485e-05 0.0133093)
(-0.000229004 -7.56801e-05 0.0133973)
(-0.000372175 -7.23189e-05 0.0135524)
(-0.000495596 -6.62203e-05 0.0137048)
(-0.000575828 -5.65e-05 0.0136762)
(0.000557299 -0.000165485 0.013637)
(0.000482116 -0.000195032 0.013724)
(0.00036368 -0.000213896 0.0136109)
(0.000224388 -0.000224388 0.0134768)
(7.56801e-05 -0.000229004 0.0133973)
(-7.56801e-05 -0.000229004 0.0133973)
(-0.000224388 -0.000224388 0.0134768)
(-0.00036368 -0.000213896 0.0136109)
(-0.000482116 -0.000195032 0.013724)
(-0.000557299 -0.000165485 0.013637)
(0.00051864 -0.000260697 0.0135233)
(0.000452799 -0.000311203 0.0137256)
(0.000344669 -0.000344669 0.0136965)
(0.000213896 -0.00036368 0.0136109)
(7.23189e-05 -0.000372175 0.0135524)
(-7.23189e-05 -0.000372175 0.0135524)
(-0.000213896 -0.00036368 0.0136109)
(-0.000344669 -0.000344669 0.0136965)
(-0.000452799 -0.000311203 0.0137256)
(-0.00051864 -0.000260697 0.0135233)
(0.000459324 -0.000329614 0.0132621)
(0.00040322 -0.00040322 0.0136237)
(0.000311203 -0.000452799 0.0137256)
(0.000195032 -0.000482116 0.013724)
(6.62202e-05 -0.000495596 0.0137048)
(-6.62203e-05 -0.000495596 0.0137048)
(-0.000195032 -0.000482116 0.013724)
(-0.000311203 -0.000452799 0.0137256)
(-0.00040322 -0.00040322 0.0136237)
(-0.000459324 -0.000329614 0.0132621)
(0.000377932 -0.000377932 0.0127556)
(0.000329614 -0.000459324 0.0132621)
(0.000260697 -0.00051864 0.0135233)
(0.000165485 -0.000557299 0.013637)
(5.65e-05 -0.000575828 0.0136762)
(-5.65e-05 -0.000575828 0.0136762)
(-0.000165485 -0.000557299 0.013637)
(-0.000260697 -0.00051864 0.0135233)
(-0.000329614 -0.000459324 0.0132621)
(-0.000377932 -0.000377932 0.0127556)
(0.00021799 0.00021799 0.0126449)
(0.000193795 0.000270725 0.0132921)
(0.000157794 0.000312712 0.0136671)
(0.000101825 0.000341708 0.0138573)
(3.5069e-05 0.000355997 0.0139343)
(-3.5069e-05 0.000355997 0.0139343)
(-0.000101825 0.000341708 0.0138573)
(-0.000157794 0.000312712 0.0136671)
(-0.000193795 0.000270725 0.0132921)
(-0.00021799 0.00021799 0.0126449)
(0.000270725 0.000193795 0.0132921)
(0.000246693 0.000246693 0.0138355)
(0.000196606 0.00028569 0.0140655)
(0.000125726 0.000310799 0.0141425)
(4.31191e-05 0.000322931 0.0141601)
(-4.31191e-05 0.000322931 0.0141601)
(-0.000125726 0.000310799 0.0141425)
(-0.000196606 0.00028569 0.0140655)
(-0.000246693 0.000246693 0.0138355)
(-0.000270725 0.000193795 0.0132921)
(0.000312712 0.000157794 0.0136671)
(0.00028569 0.000196606 0.0140655)
(0.000225316 0.000225316 0.0141625)
(0.000143053 0.000243393 0.0141484)
(4.89106e-05 0.000252017 0.0141217)
(-4.89106e-05 0.000252017 0.0141217)
(-0.000143053 0.000243393 0.0141484)
(-0.000225316 0.000225316 0.0141625)
(-0.00028569 0.000196606 0.0140655)
(-0.000312712 0.000157794 0.0136671)
(0.000341708 0.000101825 0.0138573)
(0.000310799 0.000125726 0.0141425)
(0.000243393 0.000143053 0.0141484)
(0.000153834 0.000153834 0.0140782)
(5.2498e-05 0.00015894 0.0140262)
(-5.2498e-05 0.00015894 0.0140262)
(-0.000153834 0.000153834 0.0140782)
(-0.000243393 0.000143053 0.0141484)
(-0.000310799 0.000125726 0.0141425)
(-0.000341708 0.000101825 0.0138573)
(0.000355997 3.5069e-05 0.0139343)
(0.000322931 4.31191e-05 0.0141601)
(0.000252017 4.89106e-05 0.0141217)
(0.00015894 5.2498e-05 0.0140262)
(5.41914e-05 5.41914e-05 0.0139636)
(-5.41914e-05 5.41914e-05 0.0139636)
(-0.00015894 5.2498e-05 0.0140262)
(-0.000252017 4.89106e-05 0.0141217)
(-0.000322931 4.31191e-05 0.0141601)
(-0.000355997 3.5069e-05 0.0139343)
(0.000355997 -3.5069e-05 0.0139343)
(0.000322931 -4.31191e-05 0.0141601)
(0.000252017 -4.89106e-05 0.0141217)
(0.00015894 -5.2498e-05 0.0140262)
(5.41914e-05 -5.41914e-05 0.0139636)
(-5.41914e-05 -5.41914e-05 0.0139636)
(-0.00015894 -5.2498e-05 0.0140262)
(-0.000252017 -4.89106e-05 0.0141217)
(-0.000322931 -4.31191e-05 0.0141601)
(-0.000355997 -3.5069e-05 0.0139343)
(0.000341708 -0.000101825 0.0138573)
(0.000310799 -0.000125726 0.0141425)
(0.000243393 -0.000143053 0.0141484)
(0.000153834 -0.000153834 0.0140782)
(5.2498e-05 -0.00015894 0.0140262)
(-5.2498e-05 -0.00015894 0.0140262)
(-0.000153834 -0.000153834 0.0140782)
(-0.000243393 -0.000143053 0.0141484)
(-0.000310799 -0.000125726 0.0141425)
(-0.000341708 -0.000101825 0.0138573)
(0.000312712 -0.000157794 0.0136671)
(0.00028569 -0.000196606 0.0140655)
(0.000225316 -0.000225316 0.0141625)
(0.000143053 -0.000243393 0.0141484)
(4.89106e-05 -0.000252017 0.0141217)
(-4.89106e-05 -0.000252017 0.0141217)
(-0.000143053 -0.000243393 0.0141484)
(-0.000225316 -0.000225316 0.0141625)
(-0.00028569 -0.000196606 0.0140655)
(-0.000312712 -0.000157794 0.0136671)
(0.000270725 -0.000193795 0.0132921)
(0.000246693 -0.000246693 0.0138355)
(0.000196606 -0.00028569 0.0140655)
(0.000125726 -0.000310799 0.0141425)
(4.31191e-05 -0.000322931 0.0141601)
(-4.31191e-05 -0.000322931 0.0141601)
(-0.000125726 -0.000310799 0.0141425)
(-0.000196606 -0.00028569 0.0140655)
(-0.000246693 -0.000246693 0.0138355)
(-0.000270725 -0.000193795 0.0132921)
(0.00021799 -0.00021799 0.0126449)
(0.000193795 -0.000270725 0.0132921)
(0.000157794 -0.000312712 0.0136671)
(0.000101825 -0.000341708 0.0138573)
(3.5069e-05 -0.000355997 0.0139343)
(-3.5069e-05 -0.000355997 0.0139343)
(-0.000101825 -0.000341708 0.0138573)
(-0.000157794 -0.000312712 0.0136671)
(-0.000193795 -0.000270725 0.0132921)
(-0.00021799 -0.00021799 0.0126449)
(0.000103643 0.000103643 0.0125601)
(9.54553e-05 0.000134404 0.0132673)
(8.09243e-05 0.000160732 0.013698)
(5.34268e-05 0.000179951 0.0139295)
(1.86226e-05 0.00018971 0.0140281)
(-1.86226e-05 0.00018971 0.0140281)
(-5.34268e-05 0.000179951 0.0139295)
(-8.09243e-05 0.000160732 0.013698)
(-9.54553e-05 0.000134404 0.0132673)
(-0.000103643 0.000103643 0.0125601)
(0.000134404 9.54553e-05 0.0132673)
(0.000129056 0.000129056 0.0139054)
(0.000107415 0.000156132 0.014212)
(7.0582e-05 0.000174931 0.0143414)
(2.45365e-05 0.000184422 0.0143851)
(-2.45365e-05 0.000184422 0.0143851)
(-7.0582e-05 0.000174931 0.0143414)
(-0.000107415 0.000156132 0.014212)
(-0.000129056 0.000129056 0.0139054)
(-0.000134404 9.54553e-05 0.0132673)
(0.000160732 8.09243e-05 0.013698)
(0.000156132 0.000107415 0.014212)
(0.000129076 0.000129076 0.0143966)
(8.44323e-05 0.000143884 0.014439)
(2.92918e-05 0.000151304 0.0144397)
(-2.92918e-05 0.000151304 0.0144397)
(-8.44323e-05 0.000143884 0.014439)
(-0.000129076 0.000129076 0.0143966)
(-0.000156132 0.000107415 0.014212)
(-0.000160732 8.09243e-05 0.013698)
(0.000179951 5.34268e-05 0.0139295)
(0.000174931 7.0582e-05 0.0143414)
(0.000143884 8.44323e-05 0.014439)
(9.38094e-05 9.38094e-05 0.0144262)
(3.24982e-05 9.84794e-05 0.0144016)
(-3.24982e-05 9.84794e-05 0.0144016)
(-9.38094e-05 9.38094e-05 0.0144262)
(-0.000143884 8.44323e-05 0.014439)
(-0.000174931 7.0582e-05 0.0143414)
(-0.000179951 5.34268e-05 0.0139295)
(0.00018971 1.86226e-05 0.0140281)
(0.000184422 2.45365e-05 0.0143851)
(0.000151304 2.92918e-05 0.0144397)
(9.84794e-05 3.24982e-05 0.0144016)
(3.40903e-05 3.40903e-05 0.0143661)
(-3.40903e-05 3.40903e-05 0.0143661)
(-9.84794e-05 3.24982e-05 0.0144016)
(-0.000151304 2.92918e-05 0.0144397)
(-0.000184422 2.45365e-05 0.0143851)
(-0.00018971 1.86226e-05 0.0140281)
(0.00018971 -1.86226e-05 0.0140281)
(0.000184422 -2.45365e-05 0.0143851)
(0.000151304 -2.92918e-05 0.0144397)
(9.84794e-05 -3.24982e-05 0.0144016)
(3.40903e-05 -3.40903e-05 0.0143661)
(-3.40903e-05 -3.40903e-05 0.0143661)
(-9.84794e-05 -3.24982e-05 0.0144016)
(-0.000151304 -2.92918e-05 0.0144397)
(-0.000184422 -2.45365e-05 0.0143851)
(-0.00018971 -1.86226e-05 0.0140281)
(0.000179951 -5.34268e-05 0.0139295)
(0.000174931 -7.0582e-05 0.0143414)
(0.000143884 -8.44323e-05 0.014439)
(9.38094e-05 -9.38094e-05 0.0144262)
(3.24982e-05 -9.84794e-05 0.0144016)
(-3.24982e-05 -9.84794e-05 0.0144016)
(-9.38094e-05 -9.38094e-05 0.0144262)
(-0.000143884 -8.44323e-05 0.014439)
(-0.000174931 -7.0582e-05 0.0143414)
(-0.000179951 -5.34268e-05 0.0139295)
(0.000160732 -8.09243e-05 0.013698)
(0.000156132 -0.000107415 0.014212)
(0.000129076 -0.000129076 0.0143966)
(8.44323e-05 -0.000143884 0.014439)
(2.92918e-05 -0.000151304 0.0144397)
(-2.92918e-05 -0.000151304 0.0144397)
(-8.44323e-05 -0.000143884 0.014439)
(-0.000129076 -0.000129076 0.0143966)
(-0.000156132 -0.000107415 0.014212)
(-0.000160732 -8.09243e-05 0.013698)
(0.000134404 -9.54553e-05 0.0132673)
(0.000129056 -0.000129056 0.0139054)
(0.000107415 -0.000156132 0.014212)
(7.0582e-05 -0.000174931 0.0143414)
(2.45365e-05 -0.000184422 0.0143851)
(-2.45365e-05 -0.000184422 0.0143851)
(-7.0582e-05 -0.000174931 0.0143414)
(-0.000107415 -0.000156132 0.014212)
(-0.000129056 -0.000129056 0.0139054)
(-0.000134404 -9.54553e-05 0.0132673)
(0.000103643 -0.000103643 0.0125601)
(9.54553e-05 -0.000134404 0.0132673)
(8.09243e-05 -0.000160732 0.013698)
(5.34268e-05 -0.000179951 0.0139295)
(1.86226e-05 -0.00018971 0.0140281)
(-1.86226e-05 -0.00018971 0.0140281)
(-5.34268e-05 -0.000179951 0.0139295)
(-8.09243e-05 -0.000160732 0.013698)
(-9.54553e-05 -0.000134404 0.0132673)
(-0.000103643 -0.000103643 0.0125601)
(4.28281e-05 4.28281e-05 0.0125048)
(4.09507e-05 5.78341e-05 0.0132355)
(3.61813e-05 7.1673e-05 0.0136918)
(2.44452e-05 8.23186e-05 0.0139441)
(8.63052e-06 8.78851e-05 0.0140541)
(-8.63051e-06 8.78851e-05 0.0140541)
(-2.44452e-05 8.23186e-05 0.0139441)
(-3.61813e-05 7.1673e-05 0.0136918)
(-4.09507e-05 5.78341e-05 0.0132355)
(-4.28281e-05 4.28281e-05 0.0125048)
(5.78341e-05 4.09507e-05 0.0132355)
(5.88767e-05 5.88767e-05 0.0139189)
(5.1372e-05 7.45974e-05 0.0142678)
(3.47422e-05 8.62439e-05 0.0144291)
(1.22545e-05 9.23432e-05 0.0144897)
(-1.22545e-05 9.23432e-05 0.0144897)
(-3.47422e-05 8.62439e-05 0.0144291)
(-5.1372e-05 7.45974e-05 0.0142678)
(-5.88767e-05 5.88767e-05 0.0139189)
(-5.78341e-05 4.09507e-05 0.0132355)
(7.1673e-05 3.61813e-05 0.0136918)
(7.45974e-05 5.1372e-05 0.0142678)
(6.49251e-05 6.49251e-05 0.0145071)
(4.38335e-05 7.48225e-05 0.014589)
(1.54428e-05 7.99675e-05 0.01461)
(-1.54428e-05 7.99675e-05 0.01461)
(-4.38335e-05 7.48225e-05 0.014589)
(-6.49251e-05 6.49251e-05 0.0145071)
(-7.45974e-05 5.1372e-05 0.0142678)
(-7.1673e-05 3.61813e-05 0.0136918)
(8.23186e-05 2.44452e-05 0.0139441)
(8.62439e-05 3.47422e-05 0.0144291)
(7.48225e-05 4.38335e-05 0.014589)
(5.04016e-05 5.04016e-05 0.0146197)
(1.77349e-05 5.37915e-05 0.0146172)
(-1.77349e-05 5.37915e-05 0.0146172)
(-5.04016e-05 5.04016e-05 0.0146197)
(-7.48225e-05 4.38335e-05 0.014589)
(-8.62439e-05 3.47422e-05 0.0144291)
(-8.23186e-05 2.44452e-05 0.0139441)
(8.78851e-05 8.63052e-06 0.0140541)
(9.23432e-05 1.22545e-05 0.0144897)
(7.99675e-05 1.54428e-05 0.01461)
(5.37915e-05 1.77349e-05 0.0146172)
(1.89136e-05 1.89136e-05 0.0146044)
(-1.89136e-05 1.89136e-05 0.0146044)
(-5.37915e-05 1.77349e-05 0.0146172)
(-7.99675e-05 1.54428e-05 0.01461)
(-9.23432e-05 1.22545e-05 0.0144897)
(-8.78851e-05 8.63051e-06 0.0140541)
(8.78851e-05 -8.63052e-06 0.0140541)
(9.23432e-05 -1.22545e-05 0.0144897)
(7.99675e-05 -1.54428e-05 0.01461)
(5.37915e-05 -1.77349e-05 0.0146172)
(1.89136e-05 -1.89136e-05 0.0146044)
(-1.89136e-05 -1.89136e-05 0.0146044)
(-5.37915e-05 -1.77349e-05 0.0146172)
(-7.99675e-05 -1.54428e-05 0.01461)
(-9.23432e-05 -1.22545e-05 0.0144897)
(-8.78851e-05 -8.63052e-06 0.0140541)
(8.23186e-05 -2.44452e-05 0.0139441)
(8.62439e-05 -3.47422e-05 0.0144291)
(7.48225e-05 -4.38335e-05 0.014589)
(5.04016e-05 -5.04016e-05 0.0146197)
(1.77349e-05 -5.37915e-05 0.0146172)
(-1.77349e-05 -5.37915e-05 0.0146172)
(-5.04016e-05 -5.04016e-05 0.0146197)
(-7.48225e-05 -4.38335e-05 0.014589)
(-8.62439e-05 -3.47422e-05 0.0144291)
(-8.23186e-05 -2.44452e-05 0.0139441)
(7.1673e-05 -3.61813e-05 0.0136918)
(7.45974e-05 -5.1372e-05 0.0142678)
(6.49251e-05 -6.49251e-05 0.0145071)
(4.38335e-05 -7.48225e-05 0.014589)
(1.54428e-05 -7.99675e-05 0.01461)
(-1.54428e-05 -7.99675e-05 0.01461)
(-4.38335e-05 -7.48225e-05 0.014589)
(-6.49251e-05 -6.49251e-05 0.0145071)
(-7.45974e-05 -5.13719e-05 0.0142678)
(-7.1673e-05 -3.61813e-05 0.0136918)
(5.78341e-05 -4.09507e-05 0.0132355)
(5.88767e-05 -5.88767e-05 0.0139189)
(5.1372e-05 -7.45974e-05 0.0142678)
(3.47422e-05 -8.62439e-05 0.0144291)
(1.22545e-05 -9.23432e-05 0.0144897)
(-1.22545e-05 -9.23432e-05 0.0144897)
(-3.47422e-05 -8.62439e-05 0.0144291)
(-5.13719e-05 -7.45974e-05 0.0142678)
(-5.88767e-05 -5.88767e-05 0.0139189)
(-5.78341e-05 -4.09507e-05 0.0132355)
(4.28281e-05 -4.28281e-05 0.0125048)
(4.09507e-05 -5.78341e-05 0.0132355)
(3.61813e-05 -7.1673e-05 0.0136918)
(2.44452e-05 -8.23186e-05 0.0139441)
(8.63052e-06 -8.78851e-05 0.0140541)
(-8.63052e-06 -8.78851e-05 0.0140541)
(-2.44452e-05 -8.23186e-05 0.0139441)
(-3.61813e-05 -7.1673e-05 0.0136918)
(-4.09507e-05 -5.78341e-05 0.0132355)
(-4.28281e-05 -4.28281e-05 0.0125048)
(1.54677e-05 1.54677e-05 0.0124729)
(1.55735e-05 2.19728e-05 0.0132101)
(1.44669e-05 2.83885e-05 0.0136757)
(1.00483e-05 3.35571e-05 0.0139367)
(3.60221e-06 3.6335e-05 0.0140518)
(-3.6022e-06 3.6335e-05 0.0140518)
(-1.00483e-05 3.35571e-05 0.0139367)
(-1.44669e-05 2.83885e-05 0.0136757)
(-1.55735e-05 2.19728e-05 0.0132101)
(-1.54677e-05 1.54677e-05 0.0124729)
(2.19728e-05 1.55735e-05 0.0132101)
(2.40369e-05 2.40369e-05 0.0139112)
(2.21286e-05 3.20287e-05 0.01428)
(1.54465e-05 3.8268e-05 0.0144579)
(5.53539e-06 4.16323e-05 0.0145278)
(-5.53538e-06 4.16322e-05 0.0145278)
(-1.54465e-05 3.8268e-05 0.0144579)
(-2.21286e-05 3.20287e-05 0.01428)
(-2.40369e-05 2.40369e-05 0.0139112)
(-2.19728e-05 1.55735e-05 0.0132101)
(2.83885e-05 1.44669e-05 0.0136757)
(3.20287e-05 2.21286e-05 0.01428)
(2.947e-05 2.947e-05 0.0145487)
(2.0561e-05 3.51106e-05 0.0146538)
(7.35893e-06 3.81244e-05 0.0146874)
(-7.35892e-06 3.81244e-05 0.0146874)
(-2.0561e-05 3.51106e-05 0.0146538)
(-2.947e-05 2.947e-05 0.0145487)
(-3.20287e-05 2.21286e-05 0.01428)
(-2.83885e-05 1.44669e-05 0.0136757)
(3.35571e-05 1.00483e-05 0.0139367)
(3.8268e-05 1.54465e-05 0.0144579)
(3.51106e-05 2.0561e-05 0.0146538)
(2.44414e-05 2.44414e-05 0.0147121)
(8.7341e-06 2.6497e-05 0.0147242)
(-8.73409e-06 2.6497e-05 0.0147242)
(-2.44414e-05 2.44414e-05 0.0147121)
(-3.51105e-05 2.0561e-05 0.0146538)
(-3.8268e-05 1.54465e-05 0.0144579)
(-3.35571e-05 1.00483e-05 0.0139367)
(3.6335e-05 3.6022e-06 0.0140518)
(4.16323e-05 5.53539e-06 0.0145278)
(3.81244e-05 7.35893e-06 0.0146874)
(2.6497e-05 8.7341e-06 0.0147242)
(9.45928e-06 9.45928e-06 0.0147269)
(-9.45927e-06 9.45928e-06 0.0147269)
(-2.6497e-05 8.7341e-06 0.0147242)
(-3.81244e-05 7.35892e-06 0.0146874)
(-4.16322e-05 5.53539e-06 0.0145278)
(-3.6335e-05 3.6022e-06 0.0140518)
(3.6335e-05 -3.6022e-06 0.0140518)
(4.16323e-05 -5.53539e-06 0.0145278)
(3.81244e-05 -7.35892e-06 0.0146874)
(2.6497e-05 -8.73409e-06 0.0147242)
(9.45928e-06 -9.45928e-06 0.0147269)
(-9.45927e-06 -9.45928e-06 0.0147269)
(-2.6497e-05 -8.73409e-06 0.0147242)
(-3.81244e-05 -7.35892e-06 0.0146874)
(-4.16322e-05 -5.53539e-06 0.0145278)
(-3.6335e-05 -3.6022e-06 0.0140518)
(3.35571e-05 -1.00483e-05 0.0139367)
(3.8268e-05 -1.54465e-05 0.0144579)
(3.51106e-05 -2.0561e-05 0.0146538)
(2.44414e-05 -2.44414e-05 0.0147121)
(8.7341e-06 -2.6497e-05 0.0147242)
(-8.73409e-06 -2.6497e-05 0.0147242)
(-2.44414e-05 -2.44414e-05 0.0147121)
(-3.51105e-05 -2.0561e-05 0.0146538)
(-3.8268e-05 -1.54465e-05 0.0144579)
(-3.35571e-05 -1.00483e-05 0.0139367)
(2.83885e-05 -1.44669e-05 0.0136757)
(3.20287e-05 -2.21286e-05 0.01428)
(2.947e-05 -2.947e-05 0.0145487)
(2.0561e-05 -3.51106e-05 0.0146538)
(7.35893e-06 -3.81244e-05 0.0146874)
(-7.35892e-06 -3.81244e-05 0.0146874)
(-2.0561e-05 -3.51105e-05 0.0146538)
(-2.947e-05 -2.947e-05 0.0145487)
(-3.20286e-05 -2.21286e-05 0.01428)
(-2.83885e-05 -1.44669e-05 0.0136757)
(2.19728e-05 -1.55735e-05 0.0132101)
(2.40369e-05 -2.40369e-05 0.0139112)
(2.21286e-05 -3.20287e-05 0.01428)
(1.54465e-05 -3.8268e-05 0.0144579)
(5.53539e-06 -4.16322e-05 0.0145278)
(-5.53538e-06 -4.16322e-05 0.0145278)
(-1.54465e-05 -3.8268e-05 0.0144579)
(-2.21286e-05 -3.20287e-05 0.01428)
(-2.40369e-05 -2.40369e-05 0.0139112)
(-2.19728e-05 -1.55735e-05 0.0132101)
(1.54677e-05 -1.54677e-05 0.0124729)
(1.55735e-05 -2.19728e-05 0.0132101)
(1.44669e-05 -2.83885e-05 0.0136757)
(1.00483e-05 -3.35571e-05 0.0139367)
(3.60221e-06 -3.6335e-05 0.0140518)
(-3.6022e-06 -3.6335e-05 0.0140518)
(-1.00483e-05 -3.35571e-05 0.0139367)