/*--------------------------------*- C++ -*----------------------------------*\
| =========                 |                                                 |
| \\      /  F ield         | OpenFOAM: The Open Source CFD Toolbox           |
|  \\    /   O peration     | Version:  2412                                  |
|   \\  /    A nd           | Website:  www.openfoam.com                      |
|    \\/     M anipulation  |                                                 |
\*---------------------------------------------------------------------------*/
FoamFile
{
    version     2.0;
    format      ascii;
    arch        "LSB;label=32;scalar=64";
    class       surfaceScalarField;
    location    "0.3";
    object      phi;
}
// * * * * * * * * * * * * * * * * * * * * * * * * * * * * * * * * * * * * * //

dimensions      [0 3 -1 0 0 0 0];

oriented        oriented;

internalField   nonuniform List<scalar> 
43700
(
3.94209e-08
3.94209e-08
4.87125e-07
-4.79742e-08
-4.79742e-08
2.79782e-08
3.27666e-08
5.26277e-07
-3.8217e-08
1.8501e-08
2.98369e-08
5.56045e-07
-3.69746e-08
9.18613e-09
2.78527e-08
5.76096e-07
-3.49217e-08
3.74217e-15
2.69098e-08
5.86184e-07
-3.39793e-08
-9.18612e-09
2.69098e-08
5.86184e-07
-3.39793e-08
-1.8501e-08
2.78527e-08
5.76096e-07
-3.49217e-08
-2.79782e-08
2.98369e-08
5.56045e-07
-3.69746e-08
-3.94209e-08
3.27666e-08
5.26277e-07
-3.8217e-08
3.94209e-08
4.87125e-07
-4.79741e-08
-4.79742e-08
3.27666e-08
2.79782e-08
5.26277e-07
-3.8217e-08
2.46303e-08
2.46303e-08
5.62116e-07
1.64355e-08
2.23407e-08
5.89381e-07
8.20766e-09
2.08122e-08
6.07765e-07
8.23727e-15
2.00672e-08
6.17023e-07
-8.20764e-09
2.00672e-08
6.17023e-07
-1.64355e-08
2.08122e-08
6.07765e-07
-2.46303e-08
2.23407e-08
5.89381e-07
-3.27666e-08
2.46303e-08
5.62116e-07
2.79782e-08
5.26277e-07
-3.82171e-08
2.98369e-08
1.8501e-08
5.56045e-07
-3.69746e-08
2.23407e-08
1.64355e-08
5.89381e-07
1.48732e-08
1.48732e-08
6.14808e-07
7.42603e-09
1.38387e-08
6.31983e-07
1.22951e-15
1.33307e-08
6.4064e-07
-7.42603e-09
1.33307e-08
6.4064e-07
-1.48732e-08
1.38387e-08
6.31983e-07
-2.23407e-08
1.48733e-08
6.14808e-07
-2.98368e-08
1.64355e-08
5.89381e-07
1.8501e-08
5.56045e-07
-3.69746e-08
2.78527e-08
9.18613e-09
5.76096e-07
-3.49217e-08
2.08122e-08
8.20767e-09
6.07765e-07
1.38387e-08
7.42603e-09
6.31983e-07
6.90748e-09
6.90748e-09
6.48365e-07
-2.5323e-15
6.65189e-09
6.56628e-07
-6.90748e-09
6.65189e-09
6.56628e-07
-1.38387e-08
6.90748e-09
6.48365e-07
-2.08122e-08
7.42604e-09
6.31983e-07
-2.78527e-08
8.20767e-09
6.07765e-07
9.18614e-09
5.76096e-07
-3.49217e-08
2.69098e-08
9.31261e-15
5.86184e-07
-3.39793e-08
2.00672e-08
1.36211e-14
6.17023e-07
1.33307e-08
5.55108e-16
6.4064e-07
6.65189e-09
-4.4265e-15
6.56628e-07
-5.29772e-15
-4.0745e-15
6.64696e-07
-6.6519e-09
-2.23766e-15
6.64696e-07
-1.33307e-08
1.32067e-15
6.56628e-07
-2.00672e-08
1.14191e-15
6.4064e-07
-2.69098e-08
5.18646e-15
6.17023e-07
5.93033e-15
5.86184e-07
-3.39793e-08
2.69098e-08
-9.18612e-09
5.86184e-07
-3.39793e-08
2.00672e-08
-8.20763e-09
6.17023e-07
1.33307e-08
-7.42603e-09
6.4064e-07
6.6519e-09
-6.90748e-09
6.56628e-07
-8.18453e-16
-6.6519e-09
6.64696e-07
-6.6519e-09
-6.6519e-09
6.64696e-07
-1.33307e-08
-6.90748e-09
6.56628e-07
-2.00672e-08
-7.42604e-09
6.4064e-07
-2.69098e-08
-8.20765e-09
6.17023e-07
-9.18612e-09
5.86184e-07
-3.39793e-08
2.78527e-08
-1.8501e-08
5.76096e-07
-3.49217e-08
2.08122e-08
-1.64354e-08
6.07765e-07
1.38387e-08
-1.48732e-08
6.31983e-07
6.90748e-09
-1.38387e-08
6.48365e-07
1.62021e-15
-1.33307e-08
6.56628e-07
-6.90748e-09
-1.33307e-08
6.56628e-07
-1.38387e-08
-1.38387e-08
6.48365e-07
-2.08122e-08
-1.48732e-08
6.31983e-07
-2.78527e-08
-1.64355e-08
6.07765e-07
-1.8501e-08
5.76096e-07
-3.49217e-08
2.98369e-08
-2.79782e-08
5.56045e-07
-3.69746e-08
2.23407e-08
-2.46303e-08
5.89381e-07
1.48732e-08
-2.23407e-08
6.14808e-07
7.42604e-09
-2.08122e-08
6.31983e-07
-4.50801e-16
-2.00672e-08
6.4064e-07
-7.42604e-09
-2.00672e-08
6.4064e-07
-1.48733e-08
-2.08122e-08
6.31983e-07
-2.23407e-08
-2.23407e-08
6.14808e-07
-2.98369e-08
-2.46303e-08
5.89381e-07
-2.79782e-08
5.56045e-07
-3.69746e-08
3.27666e-08
-3.94209e-08
5.26277e-07
-3.8217e-08
2.46303e-08
-3.27666e-08
5.62116e-07
1.64355e-08
-2.98369e-08
5.89381e-07
8.20767e-09
-2.78527e-08
6.07765e-07
4.6867e-15
-2.69098e-08
6.17023e-07
-8.20766e-09
-2.69098e-08
6.17023e-07
-1.64355e-08
-2.78527e-08
6.07765e-07
-2.46303e-08
-2.98369e-08
5.89381e-07
-3.27666e-08
-3.27666e-08
5.62116e-07
-3.94209e-08
5.26277e-07
-3.82171e-08
3.94209e-08
4.87125e-07
-4.79741e-08
-4.79741e-08
2.79782e-08
5.26277e-07
-3.82171e-08
1.8501e-08
5.56045e-07
-3.69746e-08
9.18613e-09
5.76096e-07
-3.49217e-08
4.69194e-15
5.86184e-07
-3.39793e-08
-9.18613e-09
5.86184e-07
-3.39793e-08
-1.8501e-08
5.76096e-07
-3.49217e-08
-2.79782e-08
5.56045e-07
-3.69746e-08
-3.94209e-08
5.26277e-07
-3.82171e-08
4.87125e-07
-4.79742e-08
-4.79741e-08
1.52942e-08
1.52942e-08
4.89964e-07
-1.67138e-08
-1.67138e-08
1.19631e-08
1.44681e-08
5.30254e-07
-1.51138e-08
8.41784e-09
1.43445e-08
5.60921e-07
-1.56748e-08
4.32477e-09
1.41862e-08
5.81574e-07
-1.55713e-08
2.05637e-14
1.40851e-08
5.91965e-07
-1.5541e-08
-4.32472e-09
1.40851e-08
5.91965e-07
-1.5541e-08
-8.4178e-09
1.41862e-08
5.81574e-07
-1.55713e-08
-1.19631e-08
1.43446e-08
5.60921e-07
-1.56748e-08
-1.52942e-08
1.44681e-08
5.30254e-07
-1.51139e-08
1.52941e-08
4.89964e-07
-1.67138e-08
-1.67138e-08
1.44681e-08
1.19631e-08
5.30254e-07
-1.51139e-08
1.18902e-08
1.18902e-08
5.67271e-07
8.41572e-09
1.17638e-08
5.95437e-07
4.35276e-09
1.16042e-08
6.1441e-07
-2.39544e-16
1.15046e-08
6.23956e-07
-4.35276e-09
1.15046e-08
6.23956e-07
-8.41571e-09
1.16042e-08
6.1441e-07
-1.18902e-08
1.17638e-08
5.95437e-07
-1.4468e-08
1.18902e-08
5.67271e-07
1.19631e-08
5.30254e-07
-1.51139e-08
1.43445e-08
8.41781e-09
5.60921e-07
-1.56748e-08
1.17638e-08
8.41573e-09
5.95437e-07
8.31079e-09
8.3108e-09
6.21714e-07
4.29304e-09
8.18278e-09
6.39423e-07
-4.13447e-15
8.10354e-09
6.48335e-07
-4.29305e-09
8.10354e-09
6.48335e-07
-8.3108e-09
8.18281e-09
6.39423e-07
-1.17638e-08
8.31083e-09
6.21714e-07
-1.43445e-08
8.41574e-09
5.95437e-07
8.41784e-09
5.60921e-07
-1.56748e-08
1.41861e-08
4.32476e-09
5.81574e-07
-1.55713e-08
1.16041e-08
4.35276e-09
6.1441e-07
8.18278e-09
4.29304e-09
6.39423e-07
4.22221e-09
4.22221e-09
6.56286e-07
-8.05386e-15
4.17855e-09
6.64776e-07
-4.22222e-09
4.17856e-09
6.64776e-07
-8.18278e-09
4.22222e-09
6.56286e-07
-1.16041e-08
4.29306e-09
6.39423e-07
-1.41861e-08
4.35276e-09
6.1441e-07
4.32476e-09
5.81574e-07
-1.55713e-08
1.40851e-08
1.89482e-14
5.91965e-07
-1.5541e-08
1.15046e-08
-8.68069e-16
6.23956e-07
8.10354e-09
-6.57683e-15
6.48335e-07
4.17855e-09
-1.0124e-14
6.64776e-07
-9.24539e-15
-1.00059e-14
6.73053e-07
-4.17857e-09
-7.72899e-15
6.73053e-07
-8.10355e-09
-3.49487e-15
6.64776e-07
-1.15046e-08
-4.65039e-16
6.48335e-07
-1.40851e-08
-2.8072e-15
6.23956e-07
7.48615e-15
5.91965e-07
-1.5541e-08
1.40851e-08
-4.32472e-09
5.91965e-07
-1.5541e-08
1.15046e-08
-4.35276e-09
6.23956e-07
8.10355e-09
-4.29305e-09
6.48335e-07
4.17856e-09
-4.22222e-09
6.64776e-07
-6.44432e-15
-4.17857e-09
6.73053e-07
-4.17857e-09
-4.17857e-09
6.73053e-07
-8.10355e-09
-4.22223e-09
6.64776e-07
-1.15046e-08
-4.29305e-09
6.48335e-07
-1.40851e-08
-4.35277e-09
6.23956e-07
-4.32474e-09
5.91965e-07
-1.5541e-08
1.41862e-08
-8.41782e-09
5.81574e-07
-1.55713e-08
1.16042e-08
-8.41571e-09
6.1441e-07
8.1828e-09
-8.31081e-09
6.39423e-07
4.22222e-09
-8.18279e-09
6.56286e-07
-2.59404e-15
-8.10355e-09
6.64776e-07
-4.22222e-09
-8.10356e-09
6.64776e-07
-8.1828e-09
-8.18281e-09
6.56286e-07
-1.16042e-08
-8.31081e-09
6.39423e-07
-1.41862e-08
-8.41573e-09
6.1441e-07
-8.41784e-09
5.81574e-07
-1.55713e-08
1.43446e-08
-1.19631e-08
5.60921e-07
-1.56748e-08
1.17638e-08
-1.18902e-08
5.95437e-07
8.31083e-09
-1.17638e-08
6.21714e-07
4.29306e-09
-1.16042e-08
6.39423e-07
-2.0359e-15
-1.15046e-08
6.48335e-07
-4.29306e-09
-1.15046e-08
6.48335e-07
-8.31083e-09
-1.16042e-08
6.39423e-07
-1.17638e-08
-1.17638e-08
6.21714e-07
-1.43446e-08
-1.18902e-08
5.95437e-07
-1.19632e-08
5.60921e-07
-1.56748e-08
1.44681e-08
-1.52942e-08
5.30254e-07
-1.51139e-08
1.18902e-08
-1.4468e-08
5.67271e-07
8.41574e-09
-1.43445e-08
5.95437e-07
4.35277e-09
-1.41862e-08
6.1441e-07
-3.37177e-15
-1.40851e-08
6.23956e-07
-4.35277e-09
-1.40851e-08
6.23956e-07
-8.41573e-09
-1.41862e-08
6.1441e-07
-1.18902e-08
-1.43446e-08
5.95437e-07
-1.44681e-08
-1.44681e-08
5.67271e-07
-1.52942e-08
5.30254e-07
-1.51139e-08
1.52941e-08
4.89964e-07
-1.67138e-08
-1.67138e-08
1.19631e-08
5.30254e-07
-1.51139e-08
8.41783e-09
5.60921e-07
-1.56748e-08
4.32476e-09
5.81574e-07
-1.55713e-08
8.39917e-15
5.91965e-07
-1.5541e-08
-4.32474e-09
5.91965e-07
-1.5541e-08
-8.41784e-09
5.81574e-07
-1.55713e-08
-1.19632e-08
5.60921e-07
-1.56748e-08
-1.52942e-08
5.30254e-07
-1.51139e-08
4.89964e-07
-1.67139e-08
-1.67139e-08
5.35454e-09
5.35455e-09
4.90333e-07
-5.53893e-09
-5.53893e-09
4.39339e-09
5.40398e-09
5.31119e-07
-5.30837e-09
3.17873e-09
5.60911e-09
5.62208e-07
-5.68146e-09
1.66098e-09
5.71394e-09
5.8317e-07
-5.79187e-09
1.37509e-14
5.75696e-09
5.93722e-07
-5.8534e-09
-1.66095e-09
5.75696e-09
5.93722e-07
-5.8534e-09
-3.17869e-09
5.71394e-09
5.8317e-07
-5.79188e-09
-4.39338e-09
5.60916e-09
5.62208e-07
-5.68148e-09
-5.35456e-09
5.40403e-09
5.31119e-07
-5.30839e-09
5.35452e-09
4.90333e-07
-5.53893e-09
-5.53893e-09
5.404e-09
4.39337e-09
5.31119e-07
-5.30837e-09
4.66118e-09
4.66117e-09
5.68757e-07
3.41297e-09
4.84969e-09
5.97444e-07
1.80128e-09
4.94667e-09
6.16789e-07
-1.03777e-15
4.98727e-09
6.26527e-07
-1.80129e-09
4.98727e-09
6.26527e-07
-3.41297e-09
4.94667e-09
6.16789e-07
-4.66115e-09
4.8497e-09
5.97444e-07
-5.40395e-09
4.66119e-09
5.68757e-07
4.39339e-09
5.31119e-07
-5.30836e-09
5.60909e-09
3.17872e-09
5.62208e-07
-5.68146e-09
4.84969e-09
3.41296e-09
5.97444e-07
3.55373e-09
3.55373e-09
6.24306e-07
1.87549e-09
3.6257e-09
6.42422e-07
-1.0312e-15
3.65538e-09
6.51542e-07
-1.87549e-09
3.65538e-09
6.51542e-07
-3.55373e-09
3.62571e-09
6.42422e-07
-4.84969e-09
3.55374e-09
6.24306e-07
-5.60909e-09
3.41297e-09
5.97444e-07
3.17872e-09
5.62208e-07
-5.68145e-09
5.71394e-09
1.66098e-09
5.8317e-07
-5.79187e-09
4.94666e-09
1.80128e-09
6.16789e-07
3.6257e-09
1.87549e-09
6.42422e-07
1.91345e-09
1.91345e-09
6.59711e-07
-3.7707e-15
1.92893e-09
6.68415e-07
-1.91346e-09
1.92893e-09
6.68415e-07
-3.6257e-09
1.91345e-09
6.59711e-07
-4.94666e-09
1.87549e-09
6.42422e-07
-5.71394e-09
1.80128e-09
6.16789e-07
1.66098e-09
5.8317e-07
-5.79187e-09
5.75696e-09
1.49463e-14
5.93722e-07
-5.8534e-09
4.98727e-09
-7.05492e-15
6.26527e-07
3.65538e-09
-2.32062e-15
6.51542e-07
1.92893e-09
-3.91788e-15
6.68415e-07
-3.70578e-15
-4.31932e-15
6.76911e-07
-1.92894e-09
-2.9568e-15
6.76911e-07
-3.65538e-09
-2.18175e-15
6.68415e-07
-4.98726e-09
-3.34801e-16
6.51542e-07
-5.75695e-09
-3.26703e-15
6.26527e-07
1.46361e-14
5.93722e-07
-5.85339e-09
5.75696e-09
-1.66094e-09
5.93722e-07
-5.8534e-09
4.98727e-09
-1.80129e-09
6.26527e-07
3.65538e-09
-1.87549e-09
6.51542e-07
1.92893e-09
-1.91346e-09
6.68415e-07
-2.65569e-15
-1.92894e-09
6.76911e-07
-1.92894e-09
-1.92894e-09
6.76911e-07
-3.65538e-09
-1.91346e-09
6.68415e-07
-4.98727e-09
-1.8755e-09
6.51542e-07
-5.75695e-09
-1.80129e-09
6.26527e-07
-1.66094e-09
5.93722e-07
-5.85339e-09
5.71394e-09
-3.17867e-09
5.8317e-07
-5.79188e-09
4.94667e-09
-3.41299e-09
6.16789e-07
3.62571e-09
-3.55373e-09
6.42422e-07
1.91345e-09
-3.6257e-09
6.59711e-07
-1.49675e-15
-3.65538e-09
6.68415e-07
-1.91346e-09
-3.65538e-09
6.68415e-07
-3.62571e-09
-3.62571e-09
6.59711e-07
-4.94667e-09
-3.55374e-09
6.42422e-07
-5.71394e-09
-3.41298e-09
6.16789e-07
-3.17869e-09
5.8317e-07
-5.79187e-09
5.60916e-09
-4.39337e-09
5.62208e-07
-5.68147e-09
4.8497e-09
-4.66116e-09
5.97444e-07
3.55374e-09
-4.84969e-09
6.24306e-07
1.87549e-09
-4.94666e-09
6.42422e-07
-8.52055e-16
-4.98726e-09
6.51542e-07
-1.8755e-09
-4.98727e-09
6.51542e-07
-3.55374e-09
-4.94667e-09
6.42422e-07
-4.8497e-09
-4.8497e-09
6.24306e-07
-5.60915e-09
-4.66116e-09
5.97444e-07
-4.39339e-09
5.62208e-07
-5.68146e-09
5.40403e-09
-5.35456e-09
5.31119e-07
-5.30838e-09
4.66117e-09
-5.40396e-09
5.68757e-07
3.41297e-09
-5.60912e-09
5.97444e-07
1.80128e-09
-5.71393e-09
6.16789e-07
-5.19535e-15
-5.75695e-09
6.26527e-07
-1.8013e-09
-5.75695e-09
6.26527e-07
-3.41299e-09
-5.71394e-09
6.16789e-07
-4.66117e-09
-5.60914e-09
5.97444e-07
-5.404e-09
-5.40398e-09
5.68757e-07
-5.35455e-09
5.31119e-07
-5.30839e-09
5.35453e-09
4.90333e-07
-5.53893e-09
-5.53894e-09
4.39339e-09
5.31119e-07
-5.30837e-09
3.17872e-09
5.62208e-07
-5.68146e-09
1.66097e-09
5.8317e-07
-5.79186e-09
9.59202e-15
5.93722e-07
-5.85339e-09
-1.66095e-09
5.93722e-07
-5.85339e-09
-3.1787e-09
5.8317e-07
-5.79187e-09
-4.3934e-09
5.62208e-07
-5.68146e-09
-5.35455e-09
5.31119e-07
-5.30838e-09
4.90333e-07
-5.53895e-09
-5.53894e-09
1.89925e-09
1.89925e-09
4.90355e-07
-1.91006e-09
-1.91007e-09
1.59874e-09
1.98651e-09
5.31323e-07
-1.88978e-09
1.17388e-09
2.11554e-09
5.62575e-07
-2.05753e-09
6.19183e-10
2.19149e-09
5.8366e-07
-2.12696e-09
6.87386e-15
2.22713e-09
5.94278e-07
-2.16394e-09
-6.19163e-10
2.22712e-09
5.94278e-07
-2.16394e-09
-1.17385e-09
2.19148e-09
5.8366e-07
-2.12696e-09
-1.59872e-09
2.11556e-09
5.62575e-07
-2.05753e-09
-1.89927e-09
1.98656e-09
5.31323e-07
-1.8898e-09
1.89924e-09
4.90355e-07
-1.91007e-09
-1.91007e-09
1.98652e-09
1.59873e-09
5.31323e-07
-1.88979e-09
1.75993e-09
1.75992e-09
5.6921e-07
1.31365e-09
1.88528e-09
5.98121e-07
7.01214e-10
1.96118e-09
6.17631e-07
-2.14988e-16
1.99718e-09
6.27458e-07
-7.01217e-10
1.99718e-09
6.27458e-07
-1.31366e-09
1.96118e-09
6.17631e-07
-1.75992e-09
1.88529e-09
5.98121e-07
-1.98647e-09
1.75994e-09
5.6921e-07
1.59875e-09
5.31323e-07
-1.88977e-09
2.11554e-09
1.17388e-09
5.62575e-07
-2.05753e-09
1.88528e-09
1.31364e-09
5.98121e-07
1.41144e-09
1.41144e-09
6.25254e-07
7.54453e-10
1.47134e-09
6.43569e-07
1.4547e-15
1.4997e-09
6.52794e-07
-7.54452e-10
1.4997e-09
6.52794e-07
-1.41144e-09
1.47134e-09
6.43569e-07
-1.88528e-09
1.41144e-09
6.25254e-07
-2.11554e-09
1.31365e-09
5.98121e-07
1.17388e-09
5.62575e-07
-2.05752e-09
2.19149e-09
6.19182e-10
5.8366e-07
-2.12696e-09
1.96117e-09
7.01209e-10
6.17631e-07
1.47134e-09
7.54453e-10
6.43569e-07
7.87328e-10
7.87328e-10
6.61079e-07
1.02939e-16
8.02868e-10
6.699e-07
-7.87327e-10
8.02867e-10
6.699e-07
-1.47134e-09
7.87327e-10
6.61079e-07
-1.96117e-09
7.54454e-10
6.43569e-07
-2.19148e-09
7.01215e-10
6.17631e-07
6.1919e-10
5.8366e-07
-2.12695e-09
2.22712e-09
8.02059e-15
5.94278e-07
-2.16394e-09
1.99718e-09
-5.4516e-15
6.27458e-07
1.4997e-09
8.61701e-17
6.52794e-07
8.02867e-10
1.12569e-16
6.699e-07
-1.59994e-16
3.07385e-17
6.78517e-07
-8.02866e-10
-6.80328e-16
6.78517e-07
-1.4997e-09
-1.03423e-15
6.699e-07
-1.99717e-09
-3.18136e-16
6.52794e-07
-2.22712e-09
-3.03329e-15
6.27458e-07
1.4313e-14
5.94278e-07
-2.16393e-09
2.22712e-09
-6.19163e-10
5.94278e-07
-2.16394e-09
1.99718e-09
-7.01222e-10
6.27458e-07
1.4997e-09
-7.54453e-10
6.52794e-07
8.02867e-10
-7.87328e-10
6.699e-07
-8.98924e-16
-8.02866e-10
6.78517e-07
-8.02868e-10
-8.02868e-10
6.78517e-07
-1.4997e-09
-7.8733e-10
6.699e-07
-1.99718e-09
-7.54455e-10
6.52794e-07
-2.22712e-09
-7.01222e-10
6.27458e-07
-6.19158e-10
5.94278e-07
-2.16393e-09
2.19148e-09
-1.17385e-09
5.8366e-07
-2.12696e-09
1.96117e-09
-1.31366e-09
6.17631e-07
1.47134e-09
-1.41144e-09
6.43569e-07
7.87327e-10
-1.47134e-09
6.61079e-07
-1.23333e-15
-1.4997e-09
6.699e-07
-7.8733e-10
-1.4997e-09
6.699e-07
-1.47134e-09
-1.47135e-09
6.61079e-07
-1.96117e-09
-1.41144e-09
6.43569e-07
-2.19148e-09
-1.31366e-09
6.17631e-07
-1.17385e-09
5.8366e-07
-2.12696e-09
2.11556e-09
-1.59873e-09
5.62575e-07
-2.05753e-09
1.88529e-09
-1.75993e-09
5.98121e-07
1.41144e-09
-1.88528e-09
6.25254e-07
7.54454e-10
-1.96117e-09
6.43569e-07
-5.89204e-16
-1.99717e-09
6.52794e-07
-7.54455e-10
-1.99718e-09
6.52794e-07
-1.41144e-09
-1.96118e-09
6.43569e-07
-1.88529e-09
-1.88529e-09
6.25254e-07
-2.11556e-09
-1.75993e-09
5.98121e-07
-1.59874e-09
5.62575e-07
-2.05752e-09
1.98655e-09
-1.89927e-09
5.31323e-07
-1.8898e-09
1.75994e-09
-1.98649e-09
5.6921e-07
1.31366e-09
-2.11554e-09
5.98121e-07
7.01215e-10
-2.19148e-09
6.17631e-07
-3.45754e-15
-2.22712e-09
6.27458e-07
-7.01224e-10
-2.22712e-09
6.27458e-07
-1.31367e-09
-2.19148e-09
6.17631e-07
-1.75993e-09
-2.11556e-09
5.98121e-07
-1.98653e-09
-1.98651e-09
5.6921e-07
-1.89927e-09
5.31323e-07
-1.88979e-09
1.89924e-09
4.90355e-07
-1.91007e-09
-1.91007e-09
1.59874e-09
5.31323e-07
-1.88978e-09
1.17388e-09
5.62575e-07
-2.05752e-09
6.1919e-10
5.8366e-07
-2.12695e-09
1.32453e-14
5.94278e-07
-2.16393e-09
-6.19161e-10
5.94278e-07
-2.16393e-09
-1.17385e-09
5.8366e-07
-2.12696e-09
-1.59874e-09
5.62575e-07
-2.05752e-09
-1.89925e-09
5.31323e-07
-1.88978e-09
4.90355e-07
-1.91008e-09
-1.91008e-09
6.70507e-10
6.70498e-10
4.90339e-07
-6.6246e-10
-6.62458e-10
5.73984e-10
7.19209e-10
5.31371e-07
-6.70339e-10
4.25764e-10
7.7978e-10
5.62682e-07
-7.39094e-10
2.26015e-10
8.17287e-10
5.83814e-07
-7.71431e-10
5.52134e-15
8.35533e-10
5.94457e-07
-7.88516e-10
-2.26002e-10
8.3553e-10
5.94457e-07
-7.88516e-10
-4.2574e-10
8.1728e-10
5.83814e-07
-7.71432e-10
-5.73964e-10
7.79788e-10
5.62682e-07
-7.39097e-10
-6.70523e-10
7.19259e-10
5.31371e-07
-6.70354e-10
6.70489e-10
4.90339e-07
-6.62462e-10
-6.62463e-10
7.19214e-10
5.73973e-10
5.31371e-07
-6.70346e-10
6.48447e-10
6.48442e-10
5.69352e-07
4.90168e-10
7.0875e-10
5.9835e-07
2.63613e-10
7.47321e-10
6.17928e-07
-1.53955e-15
7.66268e-10
6.27791e-07
-2.63619e-10
7.66268e-10
6.27791e-07
-4.9018e-10
7.47319e-10
6.17928e-07
-6.48448e-10
7.08747e-10
5.9835e-07
-7.19184e-10
6.48455e-10
5.69352e-07
5.73974e-10
5.31371e-07
-6.70326e-10
7.79777e-10
4.25757e-10
5.62682e-07
-7.39095e-10
7.08749e-10
4.90163e-10
5.9835e-07
5.38142e-10
5.38144e-10
6.25595e-07
2.90088e-10
5.69305e-10
6.43995e-07
3.09601e-15
5.84625e-10
6.53266e-07
-2.90082e-10
5.84624e-10
6.53266e-07
-5.38135e-10
5.69302e-10
6.43995e-07
-7.08741e-10
5.38141e-10
6.25595e-07
-7.79766e-10
4.90171e-10
5.9835e-07
4.25762e-10
5.62682e-07
-7.39089e-10
8.17283e-10
2.26015e-10
5.83814e-07
-7.71431e-10
7.47316e-10
2.63609e-10
6.17928e-07
5.69301e-10
2.90089e-10
6.43995e-07
3.07442e-10
3.07444e-10
6.61603e-07
2.56141e-15
3.15977e-10
6.70476e-07
-3.07436e-10
3.15976e-10
6.70476e-07
-5.69295e-10
3.0744e-10
6.61603e-07
-7.47309e-10
2.90086e-10
6.43995e-07
-8.17272e-10
2.63612e-10
6.17928e-07
2.26024e-10
5.83814e-07
-7.71425e-10
8.35531e-10
6.57439e-15
5.94457e-07
-7.88516e-10
7.66265e-10
-3.62372e-15
6.27791e-07
5.84622e-10
2.89835e-15
6.53266e-07
3.15976e-10
2.88201e-15
6.70476e-07
1.385e-15
1.97355e-15
6.79149e-07
-3.15973e-10
5.06646e-17
6.79149e-07
-5.84619e-10
-8.7132e-16
6.70476e-07
-7.66262e-10
-4.63461e-16
6.53266e-07
-8.35526e-10
-3.32767e-15
6.27791e-07
1.34668e-14
5.94457e-07
-7.88508e-10
8.3553e-10
-2.26e-10
5.94457e-07
-7.88516e-10
7.66266e-10
-2.63618e-10
6.27791e-07
5.84622e-10
-2.90081e-10
6.53266e-07
3.15975e-10
-3.07437e-10
6.70476e-07
-1.89143e-16
-3.15973e-10
6.79149e-07
-3.15975e-10
-3.15976e-10
6.79149e-07
-5.84621e-10
-3.07442e-10
6.70476e-07
-7.66264e-10
-2.90086e-10
6.53266e-07
-8.35527e-10
-2.6362e-10
6.27791e-07
-2.25995e-10
5.94457e-07
-7.88513e-10
8.17276e-10
-4.25733e-10
5.83814e-07
-7.71431e-10
7.47313e-10
-4.90176e-10
6.17928e-07
5.69298e-10
-5.38136e-10
6.43995e-07
3.07438e-10
-5.69298e-10
6.61603e-07
-1.62499e-15
-5.84619e-10
6.70476e-07
-3.07442e-10
-5.84623e-10
6.70476e-07
-5.69302e-10
-5.69304e-10
6.61603e-07
-7.47315e-10
-5.38143e-10
6.43995e-07
-8.17276e-10
-4.90181e-10
6.17928e-07
-4.25733e-10
5.83814e-07
-7.71429e-10
7.79786e-10
-5.73956e-10
5.62682e-07
-7.39095e-10
7.08744e-10
-6.48443e-10
5.9835e-07
5.38139e-10
-7.08744e-10
6.25595e-07
2.90085e-10
-7.47313e-10
6.43995e-07
-2.03696e-15
-7.66262e-10
6.53266e-07
-2.90088e-10
-7.66267e-10
6.53266e-07
-5.38144e-10
-7.47319e-10
6.43995e-07
-7.0875e-10
-7.08749e-10
6.25595e-07
-7.79791e-10
-6.48447e-10
5.9835e-07
-5.73965e-10
5.62682e-07
-7.39094e-10
7.19258e-10
-6.70519e-10
5.31371e-07
-6.70351e-10
6.48457e-10
-7.1918e-10
5.69352e-07
4.90175e-10
-7.79771e-10
5.9835e-07
2.63613e-10
-8.17273e-10
6.17928e-07
-4.08457e-15
-8.35524e-10
6.27791e-07
-2.63623e-10
-8.35528e-10
6.27791e-07
-4.90185e-10
-8.17279e-10
6.17928e-07
-6.48456e-10
-7.79786e-10
5.9835e-07
-7.19232e-10
-7.19205e-10
5.69352e-07
-6.70515e-10
5.31371e-07
-6.70339e-10
6.70487e-10
4.90339e-07
-6.6246e-10
-6.62461e-10
5.73976e-10
5.31371e-07
-6.70325e-10
4.25759e-10
5.62682e-07
-7.39088e-10
2.26019e-10
5.83814e-07
-7.71424e-10
1.15066e-14
5.94457e-07
-7.8851e-10
-2.25998e-10
5.94457e-07
-7.88511e-10
-4.25741e-10
5.83814e-07
-7.71429e-10
-5.73973e-10
5.62682e-07
-7.3909e-10
-6.70506e-10
5.31371e-07
-6.70332e-10
4.90339e-07
-6.62469e-10
-6.62468e-10
2.37653e-10
2.37647e-10
4.90328e-07
-2.32544e-10
-2.32549e-10
2.05377e-10
2.58901e-10
5.31383e-07
-2.38432e-10
1.53262e-10
2.83956e-10
5.62715e-07
-2.64985e-10
8.16674e-11
2.99924e-10
5.83864e-07
-2.78254e-10
1.75511e-15
3.0783e-10
5.94517e-07
-2.85271e-10
-8.16622e-11
3.07825e-10
5.94517e-07
-2.85268e-10
-1.5325e-10
2.99914e-10
5.83864e-07
-2.78253e-10
-2.05371e-10
2.83963e-10
5.62715e-07
-2.64984e-10
-2.37659e-10
2.58926e-10
5.31383e-07
-2.38445e-10
2.37639e-10
4.90328e-07
-2.32546e-10
-2.32547e-10
2.58905e-10
2.05374e-10
5.31383e-07
-2.38436e-10
2.35931e-10
2.35924e-10
5.69398e-07
1.79747e-10
2.61321e-10
5.98429e-07
9.71259e-11
2.78061e-10
6.18032e-07
-1.97307e-15
2.86431e-10
6.27909e-07
-9.71319e-11
2.86428e-10
6.27909e-07
-1.79758e-10
2.78055e-10
6.18032e-07
-2.35935e-10
2.61319e-10
5.98429e-07
-2.58892e-10
2.35935e-10
5.69398e-07
2.05367e-10
5.31383e-07
-2.38424e-10
2.83965e-10
1.53257e-10
5.62715e-07
-2.64989e-10
2.61325e-10
1.79744e-10
5.98429e-07
2.00227e-10
2.00227e-10
6.25717e-07
1.0853e-10
2.13956e-10
6.4415e-07
4.87136e-15
2.20836e-10
6.5344e-07
-1.0852e-10
2.20834e-10
6.5344e-07
-2.00217e-10
2.1395e-10
6.4415e-07
-2.61313e-10
2.00223e-10
6.25717e-07
-2.83948e-10
1.79748e-10
5.98429e-07
1.53266e-10
5.62715e-07
-2.64987e-10
2.9992e-10
8.16654e-11
5.83864e-07
-2.78254e-10
2.78055e-10
9.71237e-11
6.18032e-07
2.13951e-10
1.0853e-10
6.4415e-07
1.16246e-10
1.16248e-10
6.61798e-07
4.78531e-15
1.2012e-10
6.70693e-07
-1.16236e-10
1.20117e-10
6.70693e-07
-2.13941e-10
1.16242e-10
6.61798e-07
-2.78044e-10
1.08524e-10
6.4415e-07
-2.99905e-10
9.71226e-11
6.18032e-07
8.1678e-11
5.83864e-07
-2.78245e-10
3.07827e-10
2.30141e-15
5.94517e-07
-2.85271e-10
2.86426e-10
-1.98279e-15
6.27909e-07
2.20832e-10
4.50987e-15
6.5344e-07
1.20118e-10
4.90357e-15
6.70693e-07
2.87617e-15
3.77526e-15
6.79389e-07
-1.20112e-10
1.34979e-15
6.79389e-07
-2.20828e-10
-5.6805e-16
6.70693e-07
-2.86422e-10
-7.82695e-16
6.5344e-07
-3.07822e-10
-4.30065e-15
6.27909e-07
1.31141e-14
5.94517e-07
-2.85265e-10
3.07826e-10
-8.16603e-11
5.94517e-07
-2.8527e-10
2.86425e-10
-9.71279e-11
6.27909e-07
2.20831e-10
-1.0852e-10
6.5344e-07
1.20116e-10
-1.16238e-10
6.70693e-07
1.07361e-15
-1.20112e-10
6.79389e-07
-1.20114e-10
-1.20114e-10
6.79389e-07
-2.2083e-10
-1.16243e-10
6.70693e-07
-2.86423e-10
-1.08527e-10
6.5344e-07
-3.07822e-10
-9.71342e-11
6.27909e-07
-8.16493e-11
5.94517e-07
-2.85267e-10
2.99909e-10
-1.53244e-10
5.83864e-07
-2.78251e-10
2.78048e-10
-1.79752e-10
6.18032e-07
2.13945e-10
-2.00217e-10
6.4415e-07
1.1624e-10
-2.13946e-10
6.61798e-07
-1.24249e-15
-2.20829e-10
6.70693e-07
-1.16242e-10
-2.20832e-10
6.70693e-07
-2.13948e-10
-2.13951e-10
6.61798e-07
-2.7805e-10
-2.00226e-10
6.4415e-07
-2.99906e-10
-1.79763e-10
6.18032e-07
-1.53231e-10
5.83864e-07
-2.78251e-10
2.83956e-10
-2.05359e-10
5.62715e-07
-2.64984e-10
2.61314e-10
-2.35931e-10
5.98429e-07
2.00219e-10
-2.61316e-10
6.25717e-07
1.08523e-10
-2.78051e-10
6.4415e-07
-2.35733e-15
-2.86424e-10
6.5344e-07
-1.08528e-10
-2.86426e-10
6.5344e-07
-2.00227e-10
-2.78054e-10
6.4415e-07
-2.61323e-10
-2.61322e-10
6.25717e-07
-2.83968e-10
-2.35939e-10
5.98429e-07
-2.05353e-10
5.62715e-07
-2.64988e-10
2.58941e-10
-2.37665e-10
5.31383e-07
-2.38442e-10
2.35939e-10
-2.5888e-10
5.69398e-07
1.79751e-10
-2.83948e-10
5.98429e-07
9.71245e-11
-2.99909e-10
6.18032e-07
-5.29543e-15
-3.07822e-10
6.27909e-07
-9.71375e-11
-3.07823e-10
6.27909e-07
-1.79767e-10
-2.9991e-10
6.18032e-07
-2.35946e-10
-2.83965e-10
5.98429e-07
-2.58928e-10
-2.58911e-10
5.69398e-07
-2.37656e-10
5.31383e-07
-2.38432e-10
2.37644e-10
4.90328e-07
-2.32548e-10
-2.32552e-10
2.05375e-10
5.31383e-07
-2.38418e-10
1.53264e-10
5.62715e-07
-2.6498e-10
8.16748e-11
5.83864e-07
-2.78248e-10
1.01529e-14
5.94517e-07
-2.85266e-10
-8.16548e-11
5.94517e-07
-2.85266e-10
-1.53242e-10
5.83864e-07
-2.7825e-10
-2.05364e-10
5.62715e-07
-2.64985e-10
-2.37658e-10
5.31383e-07
-2.38425e-10
4.90328e-07
-2.32553e-10
-2.32555e-10
8.47386e-11
8.47453e-11
4.90324e-07
-8.25183e-11
-8.25179e-11
7.35844e-11
9.31714e-11
5.31386e-07
-8.52399e-11
5.50949e-11
1.02899e-10
5.62726e-07
-9.51897e-11
2.94187e-11
1.09201e-10
5.83881e-07
-1.00309e-10
-2.9195e-15
1.12356e-10
5.94537e-07
-1.03023e-10
-2.94241e-11
1.12353e-10
5.94537e-07
-1.03021e-10
-5.50985e-11
1.09194e-10
5.83881e-07
-1.00307e-10
-7.35983e-11
1.029e-10
5.62726e-07
-9.51833e-11
-8.47598e-11
9.31778e-11
5.31386e-07
-8.52375e-11
8.47279e-11
4.90324e-07
-8.25174e-11
-8.25221e-11
9.31589e-11
7.35991e-11
5.31386e-07
-8.52364e-11
8.54113e-11
8.54129e-11
5.69413e-07
6.53693e-11
9.53939e-11
5.98457e-07
3.54201e-11
1.0209e-10
6.1807e-07
-1.79451e-15
1.05475e-10
6.27952e-07
-3.54259e-11
1.05474e-10
6.27952e-07
-6.53784e-11
1.02086e-10
6.1807e-07
-8.54139e-11
9.53874e-11
5.98457e-07
-9.31571e-11
8.54105e-11
5.69413e-07
7.35868e-11
5.31386e-07
-8.52364e-11
1.02903e-10
5.50991e-11
5.62726e-07
-9.51866e-11
9.5399e-11
6.537e-11
5.98457e-07
7.34986e-11
7.34976e-11
6.25761e-07
3.99756e-11
7.90479e-11
6.44207e-07
5.51517e-15
8.18613e-11
6.53503e-07
-3.99639e-11
8.18587e-11
6.53503e-07
-7.34844e-11
7.90416e-11
6.44207e-07
-9.53823e-11
7.34904e-11
6.25761e-07
-1.02884e-10
6.53661e-11
5.98457e-07
5.50998e-11
5.62726e-07
-9.5181e-11
1.09202e-10
2.94187e-11
5.83881e-07
-1.00308e-10
1.02091e-10
3.54205e-11
6.1807e-07
7.90465e-11
3.99768e-11
6.44207e-07
4.31154e-11
4.31172e-11
6.6187e-07
5.80032e-15
4.47105e-11
6.70773e-07
-4.31037e-11
4.47076e-11
6.70773e-07
-7.90339e-11
4.31097e-11
6.6187e-07
-1.02077e-10
3.99685e-11
6.44207e-07
-1.09185e-10
3.54152e-11
6.1807e-07
2.94293e-11
5.83881e-07
-1.00301e-10
1.12354e-10
-9.03736e-16
5.94537e-07
-1.03024e-10
1.05473e-10
-4.82001e-16
6.27952e-07
8.18591e-11
6.60525e-15
6.53503e-07
4.47092e-11
6.67094e-15
6.70773e-07
3.95352e-15
4.76381e-15
6.79479e-07
-4.47014e-11
1.93883e-15
6.79479e-07
-8.18519e-11
-6.53893e-16
6.70773e-07
-1.05467e-10
-1.71799e-15
6.53503e-07
-1.12348e-10
-5.89829e-15
6.27952e-07
1.03375e-14
5.94537e-07
-1.03019e-10
1.12351e-10
-2.94213e-11
5.94537e-07
-1.0302e-10
1.05471e-10
-3.5423e-11
6.27952e-07
8.18565e-11
-3.99636e-11
6.53503e-07
4.47064e-11
-4.31036e-11
6.70773e-07
1.07818e-15
-4.4701e-11
6.79479e-07
-4.47044e-11
-4.47038e-11
6.79479e-07
-8.18554e-11
-4.31108e-11
6.70773e-07
-1.0547e-10
-3.99723e-11
6.53503e-07
-1.1235e-10
-3.54296e-11
6.27952e-07
-2.94078e-11
5.94537e-07
-1.03021e-10
1.09191e-10
-5.50957e-11
5.83881e-07
-1.00303e-10
1.02084e-10
-6.53763e-11
6.1807e-07
7.90397e-11
-7.34843e-11
6.44207e-07
4.31084e-11
-7.90343e-11
6.6187e-07
-1.42074e-15
-8.18519e-11
6.70773e-07
-4.31114e-11
-8.18548e-11
6.70773e-07
-7.90426e-11
-7.90423e-11
6.6187e-07
-1.02085e-10
-7.34956e-11
6.44207e-07
-1.09191e-10
-6.53842e-11
6.1807e-07
-5.50809e-11
5.83881e-07
-1.00305e-10
1.02898e-10
-7.35907e-11
5.62726e-07
-9.51852e-11
9.53896e-11
-8.54143e-11
5.98457e-07
7.34911e-11
-9.53812e-11
6.25761e-07
3.99687e-11
-1.02078e-10
6.44207e-07
-1.39375e-15
-1.05467e-10
6.53503e-07
-3.99719e-11
-1.05469e-10
6.53503e-07
-7.34947e-11
-1.02085e-10
6.44207e-07
-9.53929e-11
-9.53945e-11
6.25761e-07
-1.02907e-10
-8.54197e-11
5.98457e-07
-7.35855e-11
5.62726e-07
-9.51858e-11
9.31995e-11
-8.47576e-11
5.31386e-07
-8.5251e-11
8.54091e-11
-9.31314e-11
5.69413e-07
6.53667e-11
-1.02886e-10
5.98457e-07
3.54175e-11
-1.09189e-10
6.1807e-07
-4.18693e-15
-1.12348e-10
6.27952e-07
-3.54276e-11
-1.12348e-10
6.27952e-07
-6.53811e-11
-1.09192e-10
6.1807e-07
-8.54149e-11
-1.0291e-10
5.98457e-07
-9.31717e-11
-9.31731e-11
5.69413e-07
-8.47438e-11
5.31386e-07
-8.52344e-11
8.47205e-11
4.90324e-07
-8.251e-11
-8.25218e-11
7.35847e-11
5.31386e-07
-8.5223e-11
5.50984e-11
5.62726e-07
-9.51842e-11
2.94269e-11
5.83881e-07
-1.00304e-10
8.76255e-15
5.94537e-07
-1.0302e-10
-2.94077e-11
5.94537e-07
-1.03022e-10
-5.50802e-11
5.83881e-07
-1.00306e-10
-7.3584e-11
5.62726e-07
-9.51884e-11
-8.47443e-11
5.31386e-07
-8.52334e-11
4.90324e-07
-8.2523e-11
-8.25185e-11
3.0349e-11
3.03444e-11
4.90322e-07
-2.94774e-11
-2.94795e-11
2.64221e-11
3.35492e-11
5.31387e-07
-3.05853e-11
1.98151e-11
3.72062e-11
5.6273e-07
-3.42518e-11
1.05911e-11
3.96003e-11
5.83886e-07
-3.61708e-11
-2.45315e-15
4.08045e-11
5.94544e-07
-3.71883e-11
-1.05949e-11
4.08011e-11
5.94544e-07
-3.71862e-11
-1.98149e-11
3.95929e-11
5.83886e-07
-3.61678e-11
-2.64177e-11
3.72013e-11
5.6273e-07
-3.42489e-11
-3.03555e-11
3.3559e-11
5.31387e-07
-3.05845e-11
3.03297e-11
4.90322e-07
-2.94701e-11
-2.94782e-11
3.35418e-11
2.64154e-11
5.31387e-07
-3.0577e-11
3.08566e-11
3.08576e-11
5.69419e-07
2.36765e-11
3.4642e-11
5.98466e-07
1.28502e-11
3.7206e-11
6.18083e-07
6.9865e-16
3.85088e-11
6.27967e-07
-1.28492e-11
3.85053e-11
6.27967e-07
-2.36769e-11
3.71987e-11
6.18083e-07
-3.08542e-11
3.46326e-11
5.98466e-07
-3.35268e-11
3.08531e-11
5.69419e-07
2.64076e-11
5.31387e-07
-3.05714e-11
3.72028e-11
1.98111e-11
5.6273e-07
-3.42501e-11
3.46391e-11
2.3676e-11
5.98466e-07
2.67761e-11
2.67788e-11
6.25777e-07
1.45957e-11
2.89181e-11
6.44227e-07
6.45897e-15
3.00089e-11
6.53526e-07
-1.45831e-11
3.00056e-11
6.53526e-07
-2.67642e-11
2.89106e-11
6.44227e-07
-3.4629e-11
2.67698e-11
6.25777e-07
-3.71928e-11
2.36708e-11
5.98466e-07
1.98132e-11
5.6273e-07
-3.42501e-11
3.95979e-11
1.05885e-11
5.83886e-07
-3.61698e-11
3.72032e-11
1.28497e-11
6.18083e-07
2.89167e-11
1.45972e-11
6.44227e-07
1.58124e-11
1.5813e-11
6.61896e-07
6.68656e-15
1.64336e-11
6.70802e-07
-1.57997e-11
1.64309e-11
6.70802e-07
-2.89051e-11