/*--------------------------------*- C++ -*----------------------------------*\
| =========                 |                                                 |
| \\      /  F ield         | OpenFOAM: The Open Source CFD Toolbox           |
|  \\    /   O peration     | Version:  2412                                  |
|   \\  /    A nd           | Website:  www.openfoam.com                      |
|    \\/     M anipulation  |                                                 |
\*---------------------------------------------------------------------------*/
FoamFile
{
    version     2.0;
    format      ascii;
    arch        "LSB;label=32;scalar=64";
    class       surfaceScalarField;
    location    "9";
    object      phi;
}
// * * * * * * * * * * * * * * * * * * * * * * * * * * * * * * * * * * * * * //

dimensions      [0 3 -1 0 0 0 0];

oriented        oriented;

internalField   nonuniform List<scalar> 
43700
(
1.8333e-07
1.8333e-07
5.49938e-07
-2.23289e-07
-2.23289e-07
1.35476e-07
1.62317e-07
5.93587e-07
-1.98666e-07
8.9686e-08
1.48827e-07
6.24538e-07
-1.88144e-07
4.44977e-08
1.39884e-07
6.44413e-07
-1.79397e-07
8.2441e-17
1.35601e-07
6.54192e-07
-1.75366e-07
-4.44977e-08
1.35601e-07
6.54192e-07
-1.75366e-07
-8.9686e-08
1.39884e-07
6.44413e-07
-1.79397e-07
-1.35476e-07
1.48827e-07
6.24538e-07
-1.88144e-07
-1.8333e-07
1.62317e-07
5.93587e-07
-1.98666e-07
1.8333e-07
5.49938e-07
-2.23289e-07
-2.23289e-07
1.62317e-07
1.35476e-07
5.93587e-07
-1.98666e-07
1.20647e-07
1.20647e-07
6.29183e-07
7.95055e-08
1.09506e-07
6.54153e-07
3.93873e-08
1.02128e-07
6.70371e-07
9.42026e-17
9.85384e-08
6.78422e-07
-3.93873e-08
9.85384e-08
6.78422e-07
-7.95055e-08
1.02128e-07
6.70371e-07
-1.20647e-07
1.09506e-07
6.54153e-07
-1.62317e-07
1.20647e-07
6.29183e-07
1.35476e-07
5.93587e-07
-1.98666e-07
1.48827e-07
8.9686e-08
6.24538e-07
-1.88144e-07
1.09506e-07
7.95055e-08
6.54153e-07
7.17867e-08
7.17867e-08
6.75312e-07
3.5491e-08
6.66681e-08
6.89318e-07
1.19202e-16
6.4161e-08
6.96346e-07
-3.5491e-08
6.4161e-08
6.96346e-07
-7.17867e-08
6.66681e-08
6.89318e-07
-1.09506e-07
7.17867e-08
6.75312e-07
-1.48827e-07
7.95055e-08
6.54153e-07
8.9686e-08
6.24538e-07
-1.88144e-07
1.39884e-07
4.44977e-08
6.44413e-07
-1.79397e-07
1.02128e-07
3.93873e-08
6.70371e-07
6.66681e-08
3.5491e-08
6.89318e-07
3.28935e-08
3.28935e-08
7.02052e-07
-1.82383e-16
3.16153e-08
7.08481e-07
-3.28935e-08
3.16153e-08
7.08481e-07
-6.66681e-08
3.28935e-08
7.02052e-07
-1.02128e-07
3.5491e-08
6.89318e-07
-1.39884e-07
3.93873e-08
6.70371e-07
4.44977e-08
6.44413e-07
-1.79397e-07
1.35601e-07
-1.95445e-16
6.54192e-07
-1.75366e-07
9.85384e-08
-6.04083e-17
6.78422e-07
6.4161e-08
-1.91633e-16
6.96346e-07
3.16153e-08
-2.895e-16
7.08481e-07
-2.15657e-16
-2.94393e-16
7.14623e-07
-3.16153e-08
-2.46277e-16
7.14623e-07
-6.4161e-08
-6.18843e-17
7.08481e-07
-9.85384e-08
8.09073e-17
6.96346e-07
-1.35601e-07
1.10597e-16
6.78422e-07
-1.94204e-16
6.54192e-07
-1.75366e-07
1.35601e-07
-4.44977e-08
6.54192e-07
-1.75366e-07
9.85384e-08
-3.93873e-08
6.78422e-07
6.4161e-08
-3.5491e-08
6.96346e-07
3.16153e-08
-3.28935e-08
7.08481e-07
-2.00629e-16
-3.16153e-08
7.14623e-07
-3.16153e-08
-3.16153e-08
7.14623e-07
-6.4161e-08
-3.28935e-08
7.08481e-07
-9.85384e-08
-3.5491e-08
6.96346e-07
-1.35601e-07
-3.93873e-08
6.78422e-07
-4.44977e-08
6.54192e-07
-1.75366e-07
1.39884e-07
-8.9686e-08
6.44413e-07
-1.79397e-07
1.02128e-07
-7.95055e-08
6.70371e-07
6.66681e-08
-7.17867e-08
6.89318e-07
3.28935e-08
-6.66681e-08
7.02052e-07
1.87935e-16
-6.4161e-08
7.08481e-07
-3.28935e-08
-6.4161e-08
7.08481e-07
-6.66681e-08
-6.66681e-08
7.02052e-07
-1.02128e-07
-7.17867e-08
6.89318e-07
-1.39884e-07
-7.95055e-08
6.70371e-07
-8.9686e-08
6.44413e-07
-1.79397e-07
1.48827e-07
-1.35476e-07
6.24538e-07
-1.88144e-07
1.09506e-07
-1.20647e-07
6.54153e-07
7.17867e-08
-1.09506e-07
6.75312e-07
3.5491e-08
-1.02128e-07
6.89318e-07
1.64697e-16
-9.85384e-08
6.96346e-07
-3.5491e-08
-9.85384e-08
6.96346e-07
-7.17867e-08
-1.02128e-07
6.89318e-07
-1.09506e-07
-1.09506e-07
6.75312e-07
-1.48827e-07
-1.20647e-07
6.54153e-07
-1.35476e-07
6.24538e-07
-1.88144e-07
1.62317e-07
-1.8333e-07
5.93587e-07
-1.98666e-07
1.20647e-07
-1.62317e-07
6.29183e-07
7.95055e-08
-1.48827e-07
6.54153e-07
3.93873e-08
-1.39884e-07
6.70371e-07
5.07865e-17
-1.35601e-07
6.78422e-07
-3.93873e-08
-1.35601e-07
6.78422e-07
-7.95055e-08
-1.39884e-07
6.70371e-07
-1.20647e-07
-1.48827e-07
6.54153e-07
-1.62317e-07
-1.62317e-07
6.29183e-07
-1.8333e-07
5.93587e-07
-1.98666e-07
1.8333e-07
5.49938e-07
-2.23289e-07
-2.23289e-07
1.35476e-07
5.93587e-07
-1.98666e-07
8.9686e-08
6.24538e-07
-1.88144e-07
4.44977e-08
6.44413e-07
-1.79397e-07
8.25622e-18
6.54192e-07
-1.75366e-07
-4.44977e-08
6.54192e-07
-1.75366e-07
-8.9686e-08
6.44413e-07
-1.79397e-07
-1.35476e-07
6.24538e-07
-1.88144e-07
-1.8333e-07
5.93587e-07
-1.98666e-07
5.49938e-07
-2.23289e-07
-2.23289e-07
1.32208e-07
1.32208e-07
5.86921e-07
-1.507e-07
-1.507e-07
1.04256e-07
1.29964e-07
6.4311e-07
-1.51535e-07
7.13042e-08
1.26329e-07
6.81735e-07
-1.50574e-07
3.60175e-08
1.22787e-07
7.05599e-07
-1.48685e-07
2.21376e-16
1.20898e-07
7.17004e-07
-1.47693e-07
-3.60175e-08
1.20898e-07
7.17004e-07
-1.47693e-07
-7.13042e-08
1.22787e-07
7.05599e-07
-1.48685e-07
-1.04256e-07
1.26329e-07
6.81735e-07
-1.50574e-07
-1.32208e-07
1.29964e-07
6.4311e-07
-1.51535e-07
1.32208e-07
5.86921e-07
-1.507e-07
-1.507e-07
1.29964e-07
1.04256e-07
6.4311e-07
-1.51535e-07
1.00277e-07
1.00277e-07
6.88556e-07
6.74886e-08
9.5664e-08
7.17606e-07
3.37735e-08
9.18642e-08
7.35008e-07
2.63593e-16
8.9866e-08
7.43227e-07
-3.37735e-08
8.9866e-08
7.43227e-07
-6.74886e-08
9.18642e-08
7.35008e-07
-1.00277e-07
9.5664e-08
7.17606e-07
-1.29964e-07
1.00277e-07
6.88556e-07
1.04256e-07
6.4311e-07
-1.51535e-07
1.26329e-07
7.13042e-08
6.81735e-07
-1.50574e-07
9.5664e-08
6.74886e-08
7.17606e-07
6.35299e-08
6.35299e-08
7.3958e-07
3.15679e-08
6.051e-08
7.52635e-07
2.53498e-18
5.89507e-08
7.5883e-07
-3.15679e-08
5.89507e-08
7.5883e-07
-6.35299e-08
6.051e-08
7.52635e-07
-9.5664e-08
6.35299e-08
7.3958e-07
-1.26329e-07
6.74886e-08
7.17606e-07
7.13042e-08
6.81735e-07
-1.50574e-07
1.22787e-07
3.60175e-08
7.05599e-07
-1.48685e-07
9.18642e-08
3.37735e-08
7.35008e-07
6.051e-08
3.15679e-08
7.52635e-07
2.99407e-08
2.99407e-08
7.63191e-07
-2.5394e-16
2.91091e-08
7.68264e-07
-2.99407e-08
2.91091e-08
7.68264e-07
-6.051e-08
2.99407e-08
7.63191e-07
-9.18642e-08
3.15679e-08
7.52635e-07
-1.22787e-07
3.37735e-08
7.35008e-07
3.60175e-08
7.05599e-07
-1.48685e-07
1.20898e-07
-4.51601e-16
7.17004e-07
-1.47693e-07
8.9866e-08
-1.79258e-16
7.43227e-07
5.89507e-08
-4.37055e-16
7.5883e-07
2.91091e-08
-6.18782e-16
7.68264e-07
-6.4181e-17
-1.90511e-16
7.72841e-07
-2.91091e-08
-1.59472e-16
7.72841e-07
-5.89507e-08
-3.14782e-16
7.68264e-07
-8.9866e-08
-2.07457e-16
7.5883e-07
-1.20898e-07
-9.09545e-17
7.43227e-07
-1.85136e-16
7.17004e-07
-1.47693e-07
1.20898e-07
-3.60175e-08
7.17004e-07
-1.47693e-07
8.9866e-08
-3.37735e-08
7.43227e-07
5.89507e-08
-3.15679e-08
7.5883e-07
2.91091e-08
-2.99407e-08
7.68264e-07
-1.33742e-17
-2.91091e-08
7.72841e-07
-2.91091e-08
-2.91091e-08
7.72841e-07
-5.89507e-08
-2.99407e-08
7.68264e-07
-8.9866e-08
-3.15679e-08
7.5883e-07
-1.20898e-07
-3.37735e-08
7.43227e-07
-3.60175e-08
7.17004e-07
-1.47693e-07
1.22787e-07
-7.13042e-08
7.05599e-07
-1.48685e-07
9.18642e-08
-6.74886e-08
7.35008e-07
6.051e-08
-6.35299e-08
7.52635e-07
2.99407e-08
-6.051e-08
7.63191e-07
1.05761e-16
-5.89507e-08
7.68264e-07
-2.99407e-08
-5.89507e-08
7.68264e-07
-6.051e-08
-6.051e-08
7.63191e-07
-9.18642e-08
-6.35299e-08
7.52635e-07
-1.22787e-07
-6.74886e-08
7.35008e-07
-7.13042e-08
7.05599e-07
-1.48685e-07
1.26329e-07
-1.04256e-07
6.81735e-07
-1.50574e-07
9.5664e-08
-1.00277e-07
7.17606e-07
6.35299e-08
-9.5664e-08
7.3958e-07
3.15679e-08
-9.18642e-08
7.52635e-07
-2.2898e-16
-8.9866e-08
7.5883e-07
-3.15679e-08
-8.9866e-08
7.5883e-07
-6.35299e-08
-9.18642e-08
7.52635e-07
-9.5664e-08
-9.5664e-08
7.3958e-07
-1.26329e-07
-1.00277e-07
7.17606e-07
-1.04256e-07
6.81735e-07
-1.50574e-07
1.29964e-07
-1.32208e-07
6.4311e-07
-1.51535e-07
1.00277e-07
-1.29964e-07
6.88556e-07
6.74886e-08
-1.26329e-07
7.17606e-07
3.37735e-08
-1.22787e-07
7.35008e-07
-2.73633e-16
-1.20898e-07
7.43227e-07
-3.37735e-08
-1.20898e-07
7.43227e-07
-6.74886e-08
-1.22787e-07
7.35008e-07
-1.00277e-07
-1.26329e-07
7.17606e-07
-1.29964e-07
-1.29964e-07
6.88556e-07
-1.32208e-07
6.4311e-07
-1.51535e-07
1.32208e-07
5.86921e-07
-1.507e-07
-1.507e-07
1.04256e-07
6.4311e-07
-1.51535e-07
7.13042e-08
6.81735e-07
-1.50574e-07
3.60175e-08
7.05599e-07
-1.48685e-07
1.24845e-16
7.17004e-07
-1.47693e-07
-3.60175e-08
7.17004e-07
-1.47693e-07
-7.13042e-08
7.05599e-07
-1.48685e-07
-1.04256e-07
6.81735e-07
-1.50574e-07
-1.32208e-07
6.4311e-07
-1.51535e-07
5.86921e-07
-1.507e-07
-1.507e-07
1.07123e-07
1.07123e-07
5.96875e-07
-1.12101e-07
-1.12101e-07
9.0078e-08
1.135e-07
6.6738e-07
-1.20725e-07
6.42537e-08
1.15992e-07
7.16688e-07
-1.25121e-07
3.32876e-08
1.16313e-07
7.47325e-07
-1.27073e-07
-1.37589e-16
1.16174e-07
7.61936e-07
-1.27818e-07
-3.32876e-08
1.16174e-07
7.61936e-07
-1.27818e-07
-6.42537e-08
1.16313e-07
7.47325e-07
-1.27073e-07
-9.0078e-08
1.15992e-07
7.16688e-07
-1.25121e-07
-1.07123e-07
1.135e-07
6.6738e-07
-1.20725e-07
1.07123e-07
5.96875e-07
-1.12101e-07
-1.12101e-07
1.135e-07
9.0078e-08
6.6738e-07
-1.20725e-07
9.35696e-08
9.35696e-08
7.28417e-07
6.58252e-08
9.40913e-08
7.67251e-07
3.38031e-08
9.33142e-08
7.90029e-07
-1.54071e-16
9.26531e-08
8.00551e-07
-3.38031e-08
9.26531e-08
8.00551e-07
-6.58252e-08
9.33142e-08
7.90029e-07
-9.35696e-08
9.40913e-08
7.67251e-07
-1.135e-07
9.35696e-08
7.28417e-07
9.0078e-08
6.6738e-07
-1.20725e-07
1.15992e-07
6.42537e-08
7.16688e-07
-1.25121e-07
9.40913e-08
6.58252e-08
7.67251e-07
6.53806e-08
6.53806e-08
7.97001e-07
3.33401e-08
6.43304e-08
8.13659e-07
-4.48119e-16
6.36209e-08
8.21202e-07
-3.33401e-08
6.36209e-08
8.21202e-07
-6.53806e-08
6.43304e-08
8.13659e-07
-9.40913e-08
6.53806e-08
7.97001e-07
-1.15992e-07
6.58252e-08
7.67251e-07
6.42537e-08
7.16688e-07
-1.25121e-07
1.16313e-07
3.32876e-08
7.47325e-07
-1.27073e-07
9.33142e-08
3.38031e-08
7.90029e-07
6.43304e-08
3.33401e-08
8.13659e-07
3.26657e-08
3.26657e-08
8.2652e-07
-4.01046e-16
3.22395e-08
8.32311e-07
-3.26657e-08
3.22395e-08
8.32311e-07
-6.43304e-08
3.26657e-08
8.2652e-07
-9.33142e-08
3.33401e-08
8.13659e-07
-1.16313e-07
3.38031e-08
7.90029e-07
3.32876e-08
7.47325e-07
-1.27073e-07
1.16174e-07
-3.38401e-16
7.61936e-07
-1.27818e-07
9.26531e-08
-1.8803e-17
8.00551e-07
6.36209e-08
-6.04462e-16
8.21202e-07
3.22395e-08
-8.04783e-16
8.32311e-07
-6.65452e-18
-1.25113e-16
8.3732e-07
-3.22395e-08
2.43056e-17
8.3732e-07
-6.36209e-08
-2.98762e-16
8.32311e-07
-9.26531e-08
-6.92709e-17
8.21202e-07
-1.16174e-07
9.74576e-17
8.00551e-07
-9.22788e-17
7.61936e-07
-1.27818e-07
1.16174e-07
-3.32876e-08
7.61936e-07
-1.27818e-07
9.26531e-08
-3.38031e-08
8.00551e-07
6.36209e-08
-3.33401e-08
8.21202e-07
3.22395e-08
-3.26657e-08
8.32311e-07
6.9497e-17
-3.22395e-08
8.3732e-07
-3.22395e-08
-3.22395e-08
8.3732e-07
-6.36209e-08
-3.26657e-08
8.32311e-07
-9.26531e-08
-3.33401e-08
8.21202e-07
-1.16174e-07
-3.38031e-08
8.00551e-07
-3.32876e-08
7.61936e-07
-1.27818e-07
1.16313e-07
-6.42537e-08
7.47325e-07
-1.27073e-07
9.33142e-08
-6.58252e-08
7.90029e-07
6.43304e-08
-6.53806e-08
8.13659e-07
3.26657e-08
-6.43304e-08
8.2652e-07
3.69296e-16
-6.36209e-08
8.32311e-07
-3.26657e-08
-6.36209e-08
8.32311e-07
-6.43304e-08
-6.43304e-08
8.2652e-07
-9.33142e-08
-6.53806e-08
8.13659e-07
-1.16313e-07
-6.58252e-08
7.90029e-07
-6.42537e-08
7.47325e-07
-1.27073e-07
1.15992e-07
-9.0078e-08
7.16688e-07
-1.25121e-07
9.40913e-08
-9.35696e-08
7.67251e-07
6.53806e-08
-9.40913e-08
7.97001e-07
3.33401e-08
-9.33142e-08
8.13659e-07
2.04095e-16
-9.26531e-08
8.21202e-07
-3.33401e-08
-9.26531e-08
8.21202e-07
-6.53806e-08
-9.33142e-08
8.13659e-07
-9.40913e-08
-9.40913e-08
7.97001e-07
-1.15992e-07
-9.35696e-08
7.67251e-07
-9.0078e-08
7.16688e-07
-1.25121e-07
1.135e-07
-1.07123e-07
6.6738e-07
-1.20725e-07
9.35696e-08
-1.135e-07
7.28417e-07
6.58252e-08
-1.15992e-07
7.67251e-07
3.38031e-08
-1.16313e-07
7.90029e-07
5.36787e-17
-1.16174e-07
8.00551e-07
-3.38031e-08
-1.16174e-07
8.00551e-07
-6.58252e-08
-1.16313e-07
7.90029e-07
-9.35696e-08
-1.15992e-07
7.67251e-07
-1.135e-07
-1.135e-07
7.28417e-07
-1.07123e-07
6.6738e-07
-1.20725e-07
1.07123e-07
5.96875e-07
-1.12101e-07
-1.12101e-07
9.0078e-08
6.6738e-07
-1.20725e-07
6.42537e-08
7.16688e-07
-1.25121e-07
3.32876e-08
7.47325e-07
-1.27073e-07
1.85638e-16
7.61936e-07
-1.27818e-07
-3.32876e-08
7.61936e-07
-1.27818e-07
-6.42537e-08
7.47325e-07
-1.27073e-07
-9.0078e-08
7.16688e-07
-1.25121e-07
-1.07123e-07
6.6738e-07
-1.20725e-07
5.96875e-07
-1.12101e-07
-1.12101e-07
5.89597e-08
5.89597e-08
5.95822e-07
-5.84332e-08
-5.84332e-08
5.19937e-08
6.70194e-08
6.74256e-07
-6.6929e-08
3.83144e-08
7.18996e-08
7.30563e-07
-7.20946e-08
2.02574e-08
7.44559e-08
7.66149e-07
-7.52231e-08
1.57383e-16
7.55261e-08
7.83268e-07
-7.66007e-08
-2.02574e-08
7.55261e-08
7.83268e-07
-7.66007e-08
-3.83144e-08
7.44559e-08
7.66149e-07
-7.52231e-08
-5.19937e-08
7.18996e-08
7.30563e-07
-7.20946e-08
-5.89597e-08
6.70194e-08
6.74256e-07
-6.6929e-08
5.89597e-08
5.95822e-07
-5.84332e-08
-5.84332e-08
6.70194e-08
5.19937e-08
6.74256e-07
-6.6929e-08
5.81004e-08
5.81004e-08
7.46255e-07
4.23268e-08
6.1598e-08
7.93326e-07
2.22001e-08
6.3251e-08
8.2136e-07
5.28244e-16
6.38819e-08
8.34395e-07
-2.22001e-08
6.38819e-08
8.34395e-07
-4.23268e-08
6.3251e-08
8.2136e-07
-5.81004e-08
6.1598e-08
7.93326e-07
-6.70194e-08
5.81004e-08
7.46255e-07
5.19937e-08
6.74256e-07
-6.6929e-08
7.18996e-08
3.83144e-08
7.30563e-07
-7.20946e-08
6.1598e-08
4.23268e-08
7.93326e-07
4.44372e-08
4.44372e-08
8.31323e-07
2.31676e-08
4.53424e-08
8.52837e-07
3.94195e-16
4.5651e-08
8.626e-07
-2.31676e-08
4.5651e-08
8.626e-07
-4.44372e-08
4.53424e-08
8.52837e-07
-6.1598e-08
4.44372e-08
8.31323e-07
-7.18996e-08
4.23268e-08
7.93326e-07
3.83144e-08
7.30563e-07
-7.20946e-08
7.44559e-08
2.02574e-08
7.66149e-07
-7.52231e-08
6.3251e-08
2.22001e-08
8.2136e-07
4.53424e-08
2.31676e-08
8.52837e-07
2.35577e-08
2.35577e-08
8.7009e-07
4.11928e-16
2.36793e-08
8.7784e-07
-2.35577e-08
2.36793e-08
8.7784e-07
-4.53424e-08
2.35577e-08
8.7009e-07
-6.3251e-08
2.31676e-08
8.52837e-07
-7.44559e-08
2.22001e-08
8.2136e-07
2.02574e-08
7.66149e-07
-7.52231e-08
7.55261e-08
-2.61288e-16
7.83268e-07
-7.66007e-08
6.38819e-08
2.90397e-16
8.34395e-07
4.5651e-08
1.04432e-19
8.626e-07
2.36793e-08
-8.54658e-17
8.7784e-07
4.38119e-16
3.20205e-16
8.84679e-07
-2.36793e-08
2.16068e-16
8.84679e-07
-4.5651e-08
-4.67386e-16
8.7784e-07
-6.38819e-08
-4.17641e-16
8.626e-07
-7.55261e-08
-4.0734e-16
8.34395e-07
-3.5711e-16
7.83268e-07
-7.66007e-08
7.55261e-08
-2.02574e-08
7.83268e-07
-7.66007e-08
6.38819e-08
-2.22001e-08
8.34395e-07
4.5651e-08
-2.31676e-08
8.626e-07
2.36793e-08
-2.35577e-08
8.7784e-07
2.53381e-16
-2.36793e-08
8.84679e-07
-2.36793e-08
-2.36793e-08
8.84679e-07
-4.5651e-08
-2.35577e-08
8.7784e-07
-6.38819e-08
-2.31676e-08
8.626e-07
-7.55261e-08
-2.22001e-08
8.34395e-07
-2.02574e-08
7.83268e-07
-7.66007e-08
7.44559e-08
-3.83144e-08
7.66149e-07
-7.52231e-08
6.3251e-08
-4.23268e-08
8.2136e-07
4.53424e-08
-4.44372e-08
8.52837e-07
2.35577e-08
-4.53424e-08
8.7009e-07
3.86771e-16
-4.5651e-08
8.7784e-07
-2.35577e-08
-4.5651e-08
8.7784e-07
-4.53424e-08
-4.53424e-08
8.7009e-07
-6.3251e-08
-4.44372e-08
8.52837e-07
-7.44559e-08
-4.23268e-08
8.2136e-07
-3.83144e-08
7.66149e-07
-7.52231e-08
7.18996e-08
-5.19937e-08
7.30563e-07
-7.20946e-08
6.1598e-08
-5.81004e-08
7.93326e-07
4.44372e-08
-6.1598e-08
8.31323e-07
2.31676e-08
-6.3251e-08
8.52837e-07
4.8183e-17
-6.38819e-08
8.626e-07
-2.31676e-08
-6.38819e-08
8.626e-07
-4.44372e-08
-6.3251e-08
8.52837e-07
-6.1598e-08
-6.1598e-08
8.31323e-07
-7.18996e-08
-5.81004e-08
7.93326e-07
-5.19937e-08
7.30563e-07
-7.20946e-08
6.70194e-08
-5.89597e-08
6.74256e-07
-6.6929e-08
5.81004e-08
-6.70194e-08
7.46255e-07
4.23268e-08
-7.18996e-08
7.93326e-07
2.22001e-08
-7.44559e-08
8.2136e-07
-3.44774e-16
-7.55261e-08
8.34395e-07
-2.22001e-08
-7.55261e-08
8.34395e-07
-4.23268e-08
-7.44559e-08
8.2136e-07
-5.81004e-08
-7.18996e-08
7.93326e-07
-6.70194e-08
-6.70194e-08
7.46255e-07
-5.89597e-08
6.74256e-07
-6.6929e-08
5.89597e-08
5.95822e-07
-5.84332e-08
-5.84332e-08
5.19937e-08
6.74256e-07
-6.6929e-08
3.83144e-08
7.30563e-07
-7.20946e-08
2.02574e-08
7.66149e-07
-7.52231e-08
-1.15804e-16
7.83268e-07
-7.66007e-08
-2.02574e-08
7.83268e-07
-7.66007e-08
-3.83144e-08
7.66149e-07
-7.52231e-08
-5.19937e-08
7.30563e-07
-7.20946e-08
-5.89597e-08
6.74256e-07
-6.6929e-08
5.95822e-07
-5.84332e-08
-5.84332e-08
3.26771e-08
3.26771e-08
5.92673e-07
-3.11028e-08
-3.11028e-08
2.95975e-08
3.8347e-08
6.75323e-07
-3.63349e-08
2.22802e-08
4.22795e-08
7.35656e-07
-4.00559e-08
1.19377e-08
4.46476e-08
7.74285e-07
-4.24413e-08
2.19452e-17
4.57276e-08
7.93012e-07
-4.3534e-08
-1.19377e-08
4.57276e-08
7.93012e-07
-4.3534e-08
-2.22802e-08
4.46476e-08
7.74285e-07
-4.24413e-08
-2.95975e-08
4.22795e-08
7.35656e-07
-4.00559e-08
-3.26771e-08
3.8347e-08
6.75323e-07
-3.63349e-08
3.26771e-08
5.92673e-07
-3.11028e-08
-3.11028e-08
3.8347e-08
2.95975e-08
6.75323e-07
-3.63349e-08
3.44986e-08
3.44986e-08
7.53952e-07
2.5799e-08
3.77966e-08
8.06509e-07
1.37504e-08
3.96972e-08
8.38359e-07
4.06347e-16
4.05461e-08
8.53327e-07
-1.37504e-08
4.05461e-08
8.53327e-07
-2.5799e-08
3.96972e-08
8.38359e-07
-3.44986e-08
3.77966e-08
8.06509e-07
-3.8347e-08
3.44986e-08
7.53952e-07
2.95975e-08
6.75323e-07
-3.63349e-08
4.22795e-08
2.22802e-08
7.35656e-07
-4.00559e-08
3.77966e-08
2.5799e-08
8.06509e-07
2.80967e-08
2.80967e-08
8.50723e-07
1.49134e-08
2.93832e-08
8.76334e-07
2.3845e-16
2.99454e-08
8.88115e-07
-1.49134e-08
2.99454e-08
8.88115e-07
-2.80967e-08
2.93832e-08
8.76334e-07
-3.77966e-08
2.80967e-08
8.50723e-07
-4.22795e-08
2.5799e-08
8.06509e-07
2.22802e-08
7.35656e-07
-4.00559e-08
4.46476e-08
1.19377e-08
7.74285e-07
-4.24413e-08
3.96972e-08
1.37504e-08
8.38359e-07
2.93832e-08
1.49134e-08
8.76334e-07
1.55571e-08
1.55571e-08
8.97742e-07
2.47458e-16
1.58352e-08
9.07507e-07
-1.55571e-08
1.58352e-08
9.07507e-07
-2.93832e-08
1.55571e-08
8.97742e-07
-3.96972e-08
1.49134e-08
8.76334e-07
-4.46476e-08
1.37504e-08
8.38359e-07
1.19377e-08
7.74285e-07
-4.24413e-08
4.57276e-08
2.23565e-16
7.93012e-07
-4.3534e-08
4.05461e-08
5.07951e-16
8.53327e-07
2.99454e-08
1.41715e-16
8.88115e-07
1.58352e-08
-8.22074e-18
9.07507e-07
3.7906e-16
2.97406e-16
9.16349e-07
-1.58352e-08
6.61313e-16
9.16349e-07
-2.99454e-08
3.94657e-16
9.07507e-07
-4.05461e-08
2.08683e-16
8.88115e-07
-4.57276e-08
-1.25238e-16
8.53327e-07
-2.41116e-16
7.93012e-07
-4.3534e-08
4.57276e-08
-1.19377e-08
7.93012e-07
-4.3534e-08
4.05461e-08
-1.37504e-08
8.53327e-07
2.99454e-08
-1.49134e-08
8.88115e-07
1.58352e-08
-1.55571e-08
9.07507e-07
6.5448e-16
-1.58352e-08
9.16349e-07
-1.58352e-08
-1.58352e-08
9.16349e-07
-2.99454e-08
-1.55571e-08
9.07507e-07
-4.05461e-08
-1.49134e-08
8.88115e-07
-4.57276e-08
-1.37504e-08
8.53327e-07
-1.19378e-08
7.93012e-07
-4.3534e-08
4.46476e-08
-2.22802e-08
7.74285e-07
-4.24413e-08
3.96972e-08
-2.5799e-08
8.38359e-07
2.93832e-08
-2.80967e-08
8.76334e-07
1.55571e-08
-2.93832e-08
8.97742e-07
1.02056e-15
-2.99454e-08
9.07507e-07
-1.55571e-08
-2.99454e-08
9.07507e-07
-2.93832e-08
-2.93832e-08
8.97742e-07
-3.96972e-08
-2.80967e-08
8.76334e-07
-4.46476e-08
-2.5799e-08
8.38359e-07
-2.22802e-08
7.74285e-07
-4.24413e-08
4.22795e-08
-2.95975e-08
7.35656e-07
-4.00559e-08
3.77966e-08
-3.44986e-08
8.06509e-07
2.80967e-08
-3.77966e-08
8.50723e-07
1.49134e-08
-3.96972e-08
8.76334e-07
6.29599e-16
-4.05461e-08
8.88115e-07
-1.49134e-08
-4.05461e-08
8.88115e-07
-2.80967e-08
-3.96972e-08
8.76334e-07
-3.77966e-08
-3.77966e-08
8.50723e-07
-4.22795e-08
-3.44986e-08
8.06509e-07
-2.95975e-08
7.35656e-07
-4.00559e-08
3.8347e-08
-3.26771e-08
6.75323e-07
-3.63349e-08
3.44986e-08
-3.8347e-08
7.53952e-07
2.5799e-08
-4.22795e-08
8.06509e-07
1.37504e-08
-4.46476e-08
8.38359e-07
-3.15677e-17
-4.57276e-08
8.53327e-07
-1.37504e-08
-4.57276e-08
8.53327e-07
-2.5799e-08
-4.46476e-08
8.38359e-07
-3.44986e-08
-4.22795e-08
8.06509e-07
-3.8347e-08
-3.8347e-08
7.53952e-07
-3.26771e-08
6.75323e-07
-3.63349e-08
3.26771e-08
5.92673e-07
-3.11028e-08
-3.11028e-08
2.95975e-08
6.75323e-07
-3.63349e-08
2.22802e-08
7.35656e-07
-4.00559e-08
1.19377e-08
7.74285e-07
-4.24413e-08
7.88588e-17
7.93012e-07
-4.3534e-08
-1.19377e-08
7.93012e-07
-4.3534e-08
-2.22802e-08
7.74285e-07
-4.24413e-08
-2.95975e-08
7.35656e-07
-4.00559e-08
-3.26771e-08
6.75323e-07
-3.63349e-08
5.92673e-07
-3.11028e-08
-3.11028e-08
1.49156e-08
1.49156e-08
5.89737e-07
-1.34476e-08
-1.34476e-08
1.41056e-08
1.85068e-08
6.74003e-07
-1.63759e-08
1.09598e-08
2.12813e-08
7.36195e-07
-1.86743e-08
5.98658e-09
2.31189e-08
7.76391e-07
-2.02508e-08
1.09677e-18
2.40087e-08
7.95997e-07
-2.10067e-08
-5.98658e-09
2.40087e-08
7.95997e-07
-2.10067e-08
-1.09598e-08
2.31189e-08
7.76391e-07
-2.02508e-08
-1.41056e-08
2.12813e-08
7.36195e-07
-1.86743e-08
-1.49156e-08
1.85068e-08
6.74003e-07
-1.63759e-08
1.49156e-08
5.89737e-07
-1.34476e-08
-1.34476e-08
1.85068e-08
1.41056e-08
6.74003e-07
-1.63759e-08
1.75394e-08
1.75394e-08
7.55887e-07
1.36045e-08
2.01501e-08
8.11575e-07
7.41107e-09
2.18335e-08
8.45838e-07
5.65308e-16
2.26428e-08
8.62104e-07
-7.41107e-09
2.26428e-08
8.62104e-07
-1.36045e-08
2.18335e-08
8.45838e-07
-1.75393e-08
2.01501e-08
8.11575e-07
-1.85068e-08
1.75393e-08
7.55887e-07
1.41056e-08
6.74003e-07
-1.63759e-08
2.12813e-08
1.09598e-08
7.36195e-07
-1.86743e-08
2.01501e-08
1.36045e-08
8.11575e-07
1.55837e-08
1.55837e-08
8.59856e-07
8.46555e-09
1.68368e-08
8.88449e-07
6.0004e-16
1.74323e-08
9.01791e-07
-8.46555e-09
1.74323e-08
9.01791e-07
-1.55837e-08
1.68368e-08
8.88449e-07
-2.01501e-08
1.55837e-08
8.59856e-07
-2.12813e-08
1.36045e-08
8.11575e-07
1.09598e-08
7.36195e-07
-1.86743e-08
2.31189e-08
5.98658e-09
7.76391e-07
-2.02508e-08
2.18335e-08
7.41107e-09
8.45838e-07
1.68368e-08
8.46555e-09
8.88449e-07
9.12744e-09
9.12744e-09
9.1316e-07
5.7359e-16
9.43974e-09
9.24627e-07
-9.12744e-09
9.43974e-09
9.24627e-07
-1.68368e-08
9.12744e-09
9.1316e-07
-2.18335e-08
8.46555e-09
8.88449e-07
-2.31189e-08
7.41107e-09
8.45838e-07
5.98658e-09
7.76391e-07
-2.02508e-08
2.40087e-08
3.62724e-17
7.95997e-07
-2.10067e-08
2.26428e-08
2.444e-16
8.62104e-07
1.74323e-08
2.60021e-16
9.01791e-07
9.43974e-09
2.85859e-16
9.24627e-07
5.03803e-16
4.2276e-16
9.35229e-07
-9.43974e-09
5.41701e-16
9.35229e-07
-1.74323e-08
2.56036e-16
9.24627e-07
-2.26428e-08
-2.43328e-17
9.01791e-07
-2.40087e-08
-1.80756e-16
8.62104e-07
-1.72027e-16
7.95997e-07
-2.10067e-08
2.40087e-08
-5.98658e-09
7.95997e-07
-2.10067e-08
2.26428e-08
-7.41107e-09
8.62104e-07
1.74323e-08
-8.46555e-09
9.01791e-07
9.43974e-09
-9.12744e-09
9.24627e-07
5.76024e-16
-9.43974e-09
9.35229e-07
-9.43974e-09
-9.43974e-09
9.35229e-07
-1.74323e-08
-9.12744e-09
9.24627e-07
-2.26428e-08
-8.46555e-09
9.01791e-07
-2.40087e-08
-7.41107e-09
8.62104e-07
-5.98658e-09
7.95997e-07
-2.10067e-08
2.31189e-08
-1.09598e-08
7.76391e-07
-2.02508e-08
2.18335e-08
-1.36045e-08
8.45838e-07
1.68368e-08
-1.55837e-08
8.88449e-07
9.12744e-09
-1.68368e-08
9.1316e-07
7.68869e-16
-1.74323e-08
9.24627e-07
-9.12744e-09
-1.74323e-08
9.24627e-07
-1.68368e-08
-1.68368e-08
9.1316e-07
-2.18335e-08
-1.55837e-08
8.88449e-07
-2.31189e-08
-1.36045e-08
8.45838e-07
-1.09598e-08
7.76391e-07
-2.02508e-08
2.12813e-08
-1.41056e-08
7.36195e-07
-1.86743e-08
2.01501e-08
-1.75393e-08
8.11575e-07
1.55837e-08
-2.01501e-08
8.59856e-07
8.46555e-09
-2.18335e-08
8.88449e-07
4.77748e-16
-2.26428e-08
9.01791e-07
-8.46555e-09
-2.26428e-08
9.01791e-07
-1.55837e-08
-2.18335e-08
8.88449e-07
-2.01501e-08
-2.01501e-08
8.59856e-07
-2.12813e-08
-1.75393e-08
8.11575e-07
-1.41056e-08
7.36195e-07
-1.86743e-08
1.85068e-08
-1.49156e-08
6.74003e-07
-1.63759e-08
1.75393e-08
-1.85068e-08
7.55887e-07
1.36045e-08
-2.12813e-08
8.11575e-07
7.41107e-09
-2.31189e-08
8.45838e-07
-7.19314e-17
-2.40087e-08
8.62104e-07
-7.41107e-09
-2.40087e-08
8.62104e-07
-1.36045e-08
-2.31189e-08
8.45838e-07
-1.75393e-08
-2.12813e-08
8.11575e-07
-1.85068e-08
-1.85068e-08
7.55887e-07
-1.49156e-08
6.74003e-07
-1.63759e-08
1.49156e-08
5.89737e-07
-1.34476e-08
-1.34476e-08
1.41056e-08
6.74003e-07
-1.63759e-08
1.09598e-08
7.36195e-07
-1.86743e-08
5.98658e-09
7.76391e-07
-2.02508e-08
-6.47664e-17
7.95997e-07
-2.10067e-08
-5.98658e-09
7.95997e-07
-2.10067e-08
-1.09598e-08
7.76391e-07
-2.02508e-08
-1.41056e-08
7.36195e-07
-1.86743e-08
-1.49156e-08
6.74003e-07
-1.63759e-08
5.89737e-07
-1.34476e-08
-1.34476e-08
5.84544e-09
5.84544e-09
5.87984e-07
-4.96887e-09
-4.96887e-09
5.78813e-09
7.69499e-09
6.72671e-07
-6.306e-09
4.6502e-09
9.26242e-09
7.35527e-07
-7.45651e-09
2.59179e-09
1.03774e-08
7.76365e-07
-8.29373e-09
1.29312e-16
1.09405e-08
7.96358e-07
-8.71018e-09
-2.59179e-09
1.09405e-08
7.96358e-07
-8.71018e-09
-4.6502e-09
1.03774e-08
7.76365e-07
-8.29373e-09
-5.78813e-09
9.26242e-09
7.35527e-07
-7.4565e-09
-5.84544e-09
7.69499e-09
6.72671e-07
-6.306e-09
5.84544e-09
5.87984e-07
-4.96887e-09
-4.96887e-09
7.69499e-09
5.78813e-09
6.72671e-07
-6.306e-09
7.7235e-09
7.7235e-09
7.5583e-07
6.23296e-09
9.34248e-09
8.12986e-07
3.4752e-09
1.04685e-08
8.48505e-07
2.63116e-16
1.10343e-08
8.65486e-07
-3.4752e-09
1.10343e-08
8.65486e-07
-6.23296e-09
1.04685e-08
8.48505e-07
-7.7235e-09
9.34248e-09
8.12986e-07
-7.69499e-09
7.7235e-09
7.5583e-07
5.78813e-09
6.72671e-07
-6.306e-09
9.26242e-09
4.6502e-09
7.35527e-07
-7.45651e-09
9.34248e-09
6.23296e-09
8.12986e-07
7.53834e-09
7.53834e-09
8.63464e-07
4.19558e-09
8.43023e-09
8.9383e-07
2.22999e-16
8.8736e-09
9.08147e-07
-4.19558e-09
8.8736e-09
9.08147e-07
-7.53834e-09
8.43023e-09
8.9383e-07
-9.34248e-09
7.53834e-09
8.63464e-07
-9.26242e-09
6.23296e-09
8.12986e-07
4.6502e-09
7.35527e-07
-7.4565e-09
1.03774e-08
2.59179e-09
7.76365e-07
-8.29373e-09
1.04685e-08
3.4752e-09
8.48505e-07
8.43023e-09
4.19558e-09
8.9383e-07
4.68276e-09
4.68276e-09
9.20655e-07
3.75775e-16
4.92311e-09
9.33261e-07
-4.68276e-09
4.92311e-09
9.33261e-07
-8.43023e-09
4.68276e-09
9.20655e-07
-1.04685e-08
4.19558e-09
8.9383e-07
-1.03774e-08
3.4752e-09
8.48505e-07
2.59179e-09
7.76365e-07
-8.29373e-09
1.09405e-08
5.00291e-17
7.96358e-07
-8.71018e-09
1.10343e-08
9.50737e-17
8.65486e-07
8.8736e-09
1.11393e-16
9.08147e-07
4.92311e-09
2.26531e-16
9.33261e-07
4.37301e-16
4.38183e-16
9.45075e-07
-4.92311e-09
6.76061e-16
9.45075e-07
-8.8736e-09
7.03011e-16
9.33261e-07
-1.10343e-08
3.06908e-16
9.08147e-07
-1.09405e-08
6.43833e-17
8.65486e-07
-4.82453e-17
7.96358e-07
-8.71018e-09
1.09405e-08
-2.59179e-09
7.96358e-07
-8.71018e-09
1.10343e-08
-3.4752e-09
8.65486e-07
8.8736e-09
-4.19558e-09
9.08147e-07
4.92311e-09
-4.68276e-09
9.33261e-07
6.68273e-16
-4.92311e-09
9.45075e-07
-4.92311e-09
-4.92311e-09
9.45075e-07
-8.8736e-09
-4.68276e-09
9.33261e-07
-1.10343e-08
-4.19558e-09
9.08147e-07
-1.09405e-08
-3.4752e-09
8.65486e-07
-2.59179e-09
7.96358e-07
-8.71018e-09
1.03774e-08
-4.6502e-09
7.76365e-07
-8.29373e-09
1.04685e-08
-6.23296e-09
8.48505e-07
8.43023e-09
-7.53834e-09
8.9383e-07
4.68276e-09
-8.43023e-09
9.20655e-07
7.93719e-16
-8.8736e-09
9.33261e-07
-4.68276e-09
-8.8736e-09
9.33261e-07
-8.43023e-09
-8.43023e-09
9.20655e-07
-1.04685e-08
-7.53834e-09
8.9383e-07
-1.03774e-08
-6.23296e-09
8.48505e-07
-4.6502e-09
7.76365e-07
-8.29373e-09
9.26242e-09
-5.78813e-09
7.35527e-07
-7.4565e-09
9.34248e-09
-7.7235e-09
8.12986e-07
7.53834e-09
-9.34248e-09
8.63464e-07
4.19558e-09
-1.04685e-08
8.9383e-07
5.56348e-16
-1.10343e-08
9.08147e-07
-4.19558e-09
-1.10343e-08
9.08147e-07
-7.53834e-09
-1.04685e-08
8.9383e-07
-9.34248e-09
-9.34248e-09
8.63464e-07
-9.26242e-09
-7.7235e-09
8.12986e-07
-5.78813e-09
7.35527e-07
-7.45651e-09
7.69499e-09
-5.84544e-09
6.72671e-07
-6.306e-09
7.7235e-09
-7.69499e-09
7.5583e-07
6.23296e-09
-9.26242e-09
8.12986e-07
3.4752e-09
-1.03774e-08
8.48505e-07
1.7233e-17
-1.09405e-08
8.65486e-07
-3.4752e-09
-1.09405e-08
8.65486e-07
-6.23296e-09
-1.03774e-08
8.48505e-07
-7.7235e-09
-9.26242e-09
8.12986e-07
-7.69499e-09
-7.69499e-09
7.5583e-07
-5.84544e-09
6.72671e-07
-6.306e-09
5.84544e-09
5.87984e-07
-4.96887e-09
-4.96887e-09
5.78813e-09
6.72671e-07
-6.306e-09
4.6502e-09
7.35527e-07
-7.45651e-09
2.59179e-09
7.76365e-07
-8.29373e-09
-2.49382e-16
7.96358e-07
-8.71018e-09
-2.59179e-09
7.96358e-07
-8.71018e-09
-4.6502e-09
7.76365e-07
-8.29373e-09
-5.78813e-09
7.35527e-07
-7.4565e-09
-5.84544e-09
6.72671e-07
-6.306e-09
5.87984e-07
-4.96887e-09
-4.96887e-09
1.99466e-09
1.99466e-09
5.87106e-07
-1.55577e-09
-1.55577e-09
2.09816e-09
2.82952e-09
6.71834e-07
-2.09658e-09
1.75694e-09
3.59092e-09
7.34879e-07
-2.60152e-09
1.00283e-09
4.16181e-09
7.75943e-07
-2.98573e-09
6.06064e-17
4.45903e-09
7.96085e-07
-3.18296e-09
-1.00283e-09
4.45903e-09
7.96085e-07
-3.18296e-09
-1.75694e-09
4.16181e-09
7.75943e-07
-2.98573e-09
-2.09816e-09
3.59092e-09
7.34879e-07
-2.60152e-09
-1.99466e-09
2.82952e-09
6.71834e-07
-2.09658e-09
1.99466e-09
5.87106e-07
-1.55577e-09
-1.55577e-09
2.82952e-09
2.09816e-09
6.71834e-07
-2.09658e-09
3.04071e-09
3.04071e-09
7.55408e-07
2.56489e-09
3.88715e-09
8.13165e-07
1.4661e-09
4.50776e-09
8.49257e-07
2.52466e-16
4.82897e-09
8.66582e-07
-1.4661e-09
4.82897e-09
8.66582e-07
-2.56489e-09
4.50776e-09
8.49257e-07
-3.04071e-09
3.88715e-09
8.13165e-07
-2.82951e-09
3.04071e-09
7.55408e-07
2.09816e-09
6.71834e-07
-2.09657e-09
3.59092e-09
1.75694e-09
7.34879e-07
-2.60152e-09
3.88715e-09
2.56489e-09
8.13165e-07
3.27958e-09
3.27958e-09
8.64679e-07
1.87067e-09
3.79368e-09
8.95953e-07
3.19508e-16
4.05663e-09
9.1079e-07
-1.87067e-09
4.05663e-09
9.1079e-07
-3.27958e-09
3.79368e-09
8.95953e-07
-3.88715e-09
3.27958e-09
8.64679e-07
-3.59092e-09
2.56489e-09
8.13165e-07
1.75694e-09
7.34879e-07
-2.60152e-09
4.16181e-09
1.00283e-09
7.75943e-07
-2.98573e-09
4.50776e-09
1.4661e-09
8.49257e-07
3.79368e-09
1.87067e-09
8.95953e-07
2.15828e-09
2.15828e-09
9.23926e-07
3.5189e-16
2.30415e-09
9.37171e-07
-2.15828e-09
2.30415e-09
9.37171e-07
-3.79368e-09
2.15828e-09
9.23926e-07
-4.50776e-09
1.87067e-09
8.95953e-07
-4.16181e-09
1.4661e-09
8.49257e-07
1.00283e-09