/*--------------------------------*- C++ -*----------------------------------*\
| =========                 |                                                 |
| \\      /  F ield         | OpenFOAM: The Open Source CFD Toolbox           |
|  \\    /   O peration     | Version:  2412                                  |
|   \\  /    A nd           | Website:  www.openfoam.com                      |
|    \\/     M anipulation  |                                                 |
\*---------------------------------------------------------------------------*/
FoamFile
{
    version     2.0;
    format      ascii;
    arch        "LSB;label=32;scalar=64";
    class       volVectorField;
    location    "9";
    object      U;
}
// * * * * * * * * * * * * * * * * * * * * * * * * * * * * * * * * * * * * * //

dimensions      [0 1 -1 0 0 0 0];

internalField   nonuniform List<vector> 
15000
(
(0.00120226 0.00120226 0.0103829)
(0.000888113 0.0011232 0.010331)
(0.00060517 0.00109579 0.0102882)
(0.000355369 0.00106921 0.0102604)
(0.000116736 0.00105704 0.0102476)
(-0.000116736 0.00105704 0.0102476)
(-0.000355369 0.00106921 0.0102604)
(-0.00060517 0.00109579 0.0102882)
(-0.000888113 0.0011232 0.010331)
(-0.00120226 0.00120226 0.0103829)
(0.0011232 0.000888113 0.010331)
(0.000835941 0.000835941 0.0102652)
(0.000572462 0.000798825 0.0102232)
(0.00033415 0.000772801 0.0102011)
(0.000109692 0.000760305 0.0101919)
(-0.000109692 0.000760305 0.0101919)
(-0.00033415 0.000772801 0.0102011)
(-0.000572462 0.000798825 0.0102232)
(-0.000835941 0.000835941 0.0102652)
(-0.0011232 0.000888113 0.010331)
(0.00109579 0.00060517 0.0102882)
(0.000798825 0.000572462 0.0102232)
(0.000543461 0.000543461 0.0101896)
(0.000315681 0.000522732 0.0101742)
(0.000103453 0.000512406 0.0101681)
(-0.000103453 0.000512406 0.0101681)
(-0.000315681 0.000522732 0.0101742)
(-0.000543461 0.000543461 0.0101896)
(-0.000798825 0.000572462 0.0102232)
(-0.00109579 0.00060517 0.0102882)
(0.00106921 0.000355369 0.0102604)
(0.000772801 0.00033415 0.0102011)
(0.000522732 0.000315681 0.0101742)
(0.000302434 0.000302434 0.0101626)
(9.89467e-05 0.000295744 0.010158)
(-9.89467e-05 0.000295744 0.010158)
(-0.000302434 0.000302434 0.0101626)
(-0.000522732 0.000315681 0.0101742)
(-0.000772801 0.00033415 0.0102011)
(-0.00106921 0.000355369 0.0102604)
(0.00105704 0.000116736 0.0102476)
(0.000760305 0.000109692 0.0101919)
(0.000512406 0.000103453 0.0101681)
(0.000295744 9.89467e-05 0.010158)
(9.66576e-05 9.66576e-05 0.010154)
(-9.66576e-05 9.66576e-05 0.010154)
(-0.000295744 9.89467e-05 0.010158)
(-0.000512406 0.000103453 0.0101681)
(-0.000760305 0.000109692 0.0101919)
(-0.00105704 0.000116736 0.0102476)
(0.00105704 -0.000116736 0.0102476)
(0.000760305 -0.000109692 0.0101919)
(0.000512406 -0.000103453 0.0101681)
(0.000295744 -9.89467e-05 0.010158)
(9.66576e-05 -9.66576e-05 0.010154)
(-9.66576e-05 -9.66576e-05 0.010154)
(-0.000295744 -9.89467e-05 0.010158)
(-0.000512406 -0.000103453 0.0101681)
(-0.000760305 -0.000109692 0.0101919)
(-0.00105704 -0.000116736 0.0102476)
(0.00106921 -0.000355369 0.0102604)
(0.000772801 -0.00033415 0.0102011)
(0.000522732 -0.000315681 0.0101742)
(0.000302434 -0.000302434 0.0101626)
(9.89467e-05 -0.000295744 0.010158)
(-9.89467e-05 -0.000295744 0.010158)
(-0.000302434 -0.000302434 0.0101626)
(-0.000522732 -0.000315681 0.0101742)
(-0.000772801 -0.00033415 0.0102011)
(-0.00106921 -0.000355369 0.0102604)
(0.00109579 -0.00060517 0.0102882)
(0.000798825 -0.000572462 0.0102232)
(0.000543461 -0.000543461 0.0101896)
(0.000315681 -0.000522732 0.0101742)
(0.000103453 -0.000512406 0.0101681)
(-0.000103453 -0.000512406 0.0101681)
(-0.000315681 -0.000522732 0.0101742)
(-0.000543461 -0.000543461 0.0101896)
(-0.000798825 -0.000572462 0.0102232)
(-0.00109579 -0.00060517 0.0102882)
(0.0011232 -0.000888113 0.010331)
(0.000835941 -0.000835941 0.0102652)
(0.000572462 -0.000798825 0.0102232)
(0.00033415 -0.000772801 0.0102011)
(0.000109692 -0.000760305 0.0101919)
(-0.000109692 -0.000760305 0.0101919)
(-0.00033415 -0.000772801 0.0102011)
(-0.000572462 -0.000798825 0.0102232)
(-0.000835941 -0.000835941 0.0102652)
(-0.0011232 -0.000888113 0.010331)
(0.00120226 -0.00120226 0.0103829)
(0.000888113 -0.0011232 0.010331)
(0.00060517 -0.00109579 0.0102882)
(0.000355369 -0.00106921 0.0102604)
(0.000116736 -0.00105704 0.0102476)
(-0.000116736 -0.00105704 0.0102476)
(-0.000355369 -0.00106921 0.0102604)
(-0.00060517 -0.00109579 0.0102882)
(-0.000888113 -0.0011232 0.010331)
(-0.00120226 -0.00120226 0.0103829)
(0.000829283 0.000829283 0.0126902)
(0.000658194 0.000879296 0.0126584)
(0.000469707 0.000908471 0.0125625)
(0.000281275 0.000919709 0.0124702)
(9.31824e-05 0.000924536 0.0124179)
(-9.31824e-05 0.000924536 0.0124179)
(-0.000281275 0.000919709 0.0124702)
(-0.000469707 0.000908471 0.0125625)
(-0.000658194 0.000879296 0.0126584)
(-0.000829283 0.000829283 0.0126902)
(0.000879296 0.000658194 0.0126584)
(0.000684006 0.000684006 0.0124905)
(0.000479999 0.000690872 0.0123015)
(0.000283137 0.000688732 0.0121594)
(9.33167e-05 0.000686608 0.0120861)
(-9.33167e-05 0.000686608 0.0120861)
(-0.000283137 0.000688732 0.0121594)
(-0.000479999 0.000690872 0.0123015)
(-0.000684006 0.000684006 0.0124905)
(-0.000879296 0.000658194 0.0126584)
(0.000908471 0.000469707 0.0125625)
(0.000690872 0.000479999 0.0123015)
(0.000477511 0.000477511 0.0120658)
(0.00027874 0.000471426 0.0119042)
(9.14863e-05 0.000467581 0.011824)
(-9.14863e-05 0.000467581 0.011824)
(-0.00027874 0.000471426 0.0119042)
(-0.000477511 0.000477511 0.0120658)
(-0.000690872 0.000479999 0.0123015)
(-0.000908471 0.000469707 0.0125625)
(0.000919709 0.000281275 0.0124702)
(0.000688732 0.000283137 0.0121594)
(0.000471426 0.00027874 0.0119042)
(0.000273569 0.000273569 0.0117365)
(8.95718e-05 0.000270566 0.0116549)
(-8.95718e-05 0.000270566 0.0116549)
(-0.000273569 0.000273569 0.0117365)
(-0.000471426 0.00027874 0.0119042)
(-0.000688732 0.000283137 0.0121594)
(-0.000919709 0.000281275 0.0124702)
(0.000924536 9.31824e-05 0.0124179)
(0.000686608 9.33167e-05 0.0120861)
(0.000467581 9.14863e-05 0.011824)
(0.000270566 8.95718e-05 0.0116549)
(8.84862e-05 8.84862e-05 0.0115731)
(-8.84862e-05 8.84862e-05 0.0115731)
(-0.000270566 8.95718e-05 0.0116549)
(-0.000467581 9.14863e-05 0.011824)
(-0.000686608 9.33167e-05 0.0120861)
(-0.000924536 9.31824e-05 0.0124179)
(0.000924536 -9.31824e-05 0.0124179)
(0.000686608 -9.33167e-05 0.0120861)
(0.000467581 -9.14863e-05 0.011824)
(0.000270566 -8.95718e-05 0.0116549)
(8.84862e-05 -8.84862e-05 0.0115731)
(-8.84862e-05 -8.84862e-05 0.0115731)
(-0.000270566 -8.95718e-05 0.0116549)
(-0.000467581 -9.14863e-05 0.011824)
(-0.000686608 -9.33167e-05 0.0120861)
(-0.000924536 -9.31824e-05 0.0124179)
(0.000919709 -0.000281275 0.0124702)
(0.000688732 -0.000283137 0.0121594)
(0.000471426 -0.00027874 0.0119042)
(0.000273569 -0.000273569 0.0117365)
(8.95718e-05 -0.000270566 0.0116549)
(-8.95718e-05 -0.000270566 0.0116549)
(-0.000273569 -0.000273569 0.0117365)
(-0.000471426 -0.00027874 0.0119042)
(-0.000688732 -0.000283137 0.0121594)
(-0.000919709 -0.000281275 0.0124702)
(0.000908471 -0.000469707 0.0125625)
(0.000690872 -0.000479999 0.0123015)
(0.000477511 -0.000477511 0.0120658)
(0.00027874 -0.000471426 0.0119042)
(9.14863e-05 -0.000467581 0.011824)
(-9.14863e-05 -0.000467581 0.011824)
(-0.00027874 -0.000471426 0.0119042)
(-0.000477511 -0.000477511 0.0120658)
(-0.000690872 -0.000479999 0.0123015)
(-0.000908471 -0.000469707 0.0125625)
(0.000879296 -0.000658194 0.0126584)
(0.000684006 -0.000684006 0.0124905)
(0.000479999 -0.000690872 0.0123015)
(0.000283137 -0.000688732 0.0121594)
(9.33167e-05 -0.000686608 0.0120861)
(-9.33167e-05 -0.000686608 0.0120861)
(-0.000283137 -0.000688732 0.0121594)
(-0.000479999 -0.000690872 0.0123015)
(-0.000684006 -0.000684006 0.0124905)
(-0.000879296 -0.000658194 0.0126584)
(0.000829283 -0.000829283 0.0126902)
(0.000658194 -0.000879296 0.0126584)
(0.000469707 -0.000908471 0.0125625)
(0.000281275 -0.000919709 0.0124702)
(9.31824e-05 -0.000924536 0.0124179)
(-9.31824e-05 -0.000924536 0.0124179)
(-0.000281275 -0.000919709 0.0124702)
(-0.000469707 -0.000908471 0.0125625)
(-0.000658194 -0.000879296 0.0126584)
(-0.000829283 -0.000829283 0.0126902)
(0.000659703 0.000659703 0.0125237)
(0.000553747 0.00074831 0.0128274)
(0.000418354 0.000808003 0.0129415)
(0.000259025 0.000842486 0.0129646)
(8.73015e-05 0.000858539 0.0129619)
(-8.73016e-05 0.000858539 0.0129619)
(-0.000259025 0.000842486 0.0129646)
(-0.000418354 0.000808003 0.0129415)
(-0.000553747 0.00074831 0.0128274)
(-0.000659703 0.000659703 0.0125237)
(0.00074831 0.000553747 0.0128274)
(0.000624436 0.000624436 0.0129622)
(0.000462225 0.00066493 0.012927)
(0.000282282 0.000684782 0.0128533)
(9.46416e-05 0.000692975 0.0128044)
(-9.46416e-05 0.000692975 0.0128044)
(-0.000282282 0.000684782 0.0128533)
(-0.000462225 0.00066493 0.012927)
(-0.000624436 0.000624436 0.0129622)
(-0.00074831 0.000553747 0.0128274)
(0.000808003 0.000418354 0.0129415)
(0.00066493 0.000462225 0.012927)
(0.000485181 0.000485181 0.0127879)
(0.000293231 0.000494958 0.0126552)
(9.78838e-05 0.000498442 0.0125806)
(-9.78838e-05 0.000498442 0.0125806)
(-0.000293231 0.000494958 0.0126552)
(-0.000485181 0.000485181 0.0127879)
(-0.00066493 0.000462225 0.012927)
(-0.000808003 0.000418354 0.0129415)
(0.000842486 0.000259025 0.0129646)
(0.000684782 0.000282282 0.0128533)
(0.000494958 0.000293231 0.0126552)
(0.000297316 0.000297316 0.0124929)
(9.89924e-05 0.000298539 0.0124068)
(-9.89924e-05 0.000298539 0.0124068)
(-0.000297316 0.000297316 0.0124929)
(-0.000494958 0.000293231 0.0126552)
(-0.000684782 0.000282282 0.0128533)
(-0.000842486 0.000259025 0.0129646)
(0.000858539 8.73015e-05 0.0129619)
(0.000692975 9.46416e-05 0.0128044)
(0.000498442 9.78838e-05 0.0125806)
(0.000298539 9.89924e-05 0.0124068)
(9.92802e-05 9.92802e-05 0.0123165)
(-9.92802e-05 9.92802e-05 0.0123165)
(-0.000298539 9.89924e-05 0.0124068)
(-0.000498442 9.78838e-05 0.0125806)
(-0.000692975 9.46416e-05 0.0128044)
(-0.000858539 8.73015e-05 0.0129619)
(0.000858539 -8.73016e-05 0.0129619)
(0.000692975 -9.46416e-05 0.0128044)
(0.000498442 -9.78838e-05 0.0125806)
(0.000298539 -9.89924e-05 0.0124068)
(9.92802e-05 -9.92802e-05 0.0123165)
(-9.92802e-05 -9.92802e-05 0.0123165)
(-0.000298539 -9.89924e-05 0.0124068)
(-0.000498442 -9.78838e-05 0.0125806)
(-0.000692975 -9.46416e-05 0.0128044)
(-0.000858539 -8.73016e-05 0.0129619)
(0.000842486 -0.000259025 0.0129646)
(0.000684782 -0.000282282 0.0128533)
(0.000494958 -0.000293231 0.0126552)
(0.000297316 -0.000297316 0.0124929)
(9.89924e-05 -0.000298539 0.0124068)
(-9.89924e-05 -0.000298539 0.0124068)
(-0.000297316 -0.000297316 0.0124929)
(-0.000494958 -0.000293231 0.0126552)
(-0.000684782 -0.000282282 0.0128533)
(-0.000842486 -0.000259025 0.0129646)
(0.000808003 -0.000418354 0.0129415)
(0.00066493 -0.000462225 0.012927)
(0.000485181 -0.000485181 0.0127879)
(0.000293231 -0.000494958 0.0126552)
(9.78838e-05 -0.000498442 0.0125806)
(-9.78838e-05 -0.000498442 0.0125806)
(-0.000293231 -0.000494958 0.0126552)
(-0.000485181 -0.000485181 0.0127879)
(-0.00066493 -0.000462225 0.012927)
(-0.000808003 -0.000418354 0.0129415)
(0.00074831 -0.000553747 0.0128274)
(0.000624436 -0.000624436 0.0129622)
(0.000462225 -0.00066493 0.012927)
(0.000282282 -0.000684782 0.0128533)
(9.46416e-05 -0.000692975 0.0128044)
(-9.46416e-05 -0.000692975 0.0128044)
(-0.000282282 -0.000684782 0.0128533)
(-0.000462225 -0.00066493 0.012927)
(-0.000624436 -0.000624436 0.0129622)
(-0.00074831 -0.000553747 0.0128274)
(0.000659703 -0.000659703 0.0125237)
(0.000553747 -0.00074831 0.0128274)
(0.000418354 -0.000808003 0.0129415)
(0.000259025 -0.000842486 0.0129646)
(8.73016e-05 -0.000858539 0.0129619)
(-8.73015e-05 -0.000858539 0.0129619)
(-0.000259025 -0.000842486 0.0129646)
(-0.000418354 -0.000808003 0.0129415)
(-0.000553747 -0.00074831 0.0128274)
(-0.000659703 -0.000659703 0.0125237)
(0.000356438 0.000356438 0.0127551)
(0.000310998 0.000433271 0.0132511)
(0.000245992 0.000489187 0.0135049)
(0.000156168 0.000525736 0.0136139)
(5.33263e-05 0.00054331 0.013651)
(-5.33263e-05 0.00054331 0.013651)
(-0.000156168 0.000525736 0.0136139)
(-0.000245992 0.000489187 0.0135049)
(-0.000310998 0.000433271 0.0132511)
(-0.000356438 0.000356438 0.0127551)
(0.000433271 0.000310998 0.0132511)
(0.000380478 0.000380478 0.0136016)
(0.00029397 0.000427654 0.0136973)
(0.000184463 0.000455877 0.0136931)
(6.26821e-05 0.000468996 0.0136732)
(-6.26821e-05 0.000468996 0.0136732)
(-0.000184463 0.000455877 0.0136931)
(-0.00029397 0.000427654 0.0136973)
(-0.000380478 0.000380478 0.0136016)
(-0.000433271 0.000310998 0.0132511)
(0.000489187 0.000245992 0.0135049)
(0.000427654 0.00029397 0.0136973)
(0.000326364 0.000326364 0.013665)
(0.000203056 0.000345216 0.0135796)
(6.87588e-05 0.000353816 0.0135219)
(-6.87588e-05 0.000353816 0.0135219)
(-0.000203056 0.000345216 0.0135796)
(-0.000326364 0.000326364 0.013665)
(-0.000427654 0.00029397 0.0136973)
(-0.000489187 0.000245992 0.0135049)
(0.000525736 0.000156168 0.0136139)
(0.000455877 0.000184463 0.0136931)
(0.000345216 0.000203056 0.0135796)
(0.000213762 0.000213762 0.0134481)
(7.22448e-05 0.000218608 0.0133707)
(-7.22448e-05 0.000218608 0.0133707)
(-0.000213762 0.000213762 0.0134481)
(-0.000345216 0.000203056 0.0135796)
(-0.000455877 0.000184463 0.0136931)
(-0.000525736 0.000156168 0.0136139)
(0.00054331 5.33263e-05 0.013651)
(0.000468996 6.26821e-05 0.0136732)
(0.000353816 6.87588e-05 0.0135219)
(0.000218608 7.22448e-05 0.0133707)
(7.38177e-05 7.38177e-05 0.0132855)
(-7.38177e-05 7.38177e-05 0.0132855)
(-0.000218608 7.22448e-05 0.0133707)
(-0.000353816 6.87588e-05 0.0135219)
(-0.000468996 6.26821e-05 0.0136732)
(-0.00054331 5.33263e-05 0.013651)
(0.00054331 -5.33263e-05 0.013651)
(0.000468996 -6.26821e-05 0.0136732)
(0.000353816 -6.87588e-05 0.0135219)
(0.000218608 -7.22448e-05 0.0133707)
(7.38177e-05 -7.38177e-05 0.0132855)
(-7.38177e-05 -7.38177e-05 0.0132855)
(-0.000218608 -7.22448e-05 0.0133707)
(-0.000353816 -6.87588e-05 0.0135219)
(-0.000468996 -6.26821e-05 0.0136732)
(-0.00054331 -5.33263e-05 0.013651)
(0.000525736 -0.000156168 0.0136139)
(0.000455877 -0.000184463 0.0136931)
(0.000345216 -0.000203056 0.0135796)
(0.000213762 -0.000213762 0.0134481)
(7.22448e-05 -0.000218608 0.0133707)
(-7.22448e-05 -0.000218608 0.0133707)
(-0.000213762 -0.000213762 0.0134481)
(-0.000345216 -0.000203056 0.0135796)
(-0.000455877 -0.000184463 0.0136931)
(-0.000525736 -0.000156168 0.0136139)
(0.000489187 -0.000245992 0.0135049)
(0.000427654 -0.00029397 0.0136973)
(0.000326364 -0.000326364 0.013665)
(0.000203056 -0.000345216 0.0135796)
(6.87588e-05 -0.000353816 0.0135219)
(-6.87588e-05 -0.000353816 0.0135219)
(-0.000203056 -0.000345216 0.0135796)
(-0.000326364 -0.000326364 0.013665)
(-0.000427654 -0.00029397 0.0136973)
(-0.000489187 -0.000245992 0.0135049)
(0.000433271 -0.000310998 0.0132511)
(0.000380478 -0.000380478 0.0136016)
(0.00029397 -0.000427654 0.0136973)
(0.000184463 -0.000455877 0.0136931)
(6.26821e-05 -0.000468996 0.0136732)
(-6.26821e-05 -0.000468996 0.0136732)
(-0.000184463 -0.000455877 0.0136931)
(-0.00029397 -0.000427654 0.0136973)
(-0.000380478 -0.000380478 0.0136016)
(-0.000433271 -0.000310998 0.0132511)
(0.000356438 -0.000356438 0.0127551)
(0.000310998 -0.000433271 0.0132511)
(0.000245992 -0.000489187 0.0135049)
(0.000156168 -0.000525736 0.0136139)
(5.33263e-05 -0.00054331 0.013651)
(-5.33263e-05 -0.00054331 0.013651)
(-0.000156168 -0.000525736 0.0136139)
(-0.000245992 -0.000489187 0.0135049)
(-0.000310998 -0.000433271 0.0132511)
(-0.000356438 -0.000356438 0.0127551)
(0.000196055 0.000196055 0.0126516)
(0.000174602 0.000243785 0.0132762)
(0.000142394 0.00028178 0.0136336)
(9.19817e-05 0.000308126 0.0138127)
(3.1699e-05 0.000321147 0.0138844)
(-3.1699e-05 0.000321147 0.0138844)
(-9.19817e-05 0.000308126 0.0138127)
(-0.000142394 0.00028178 0.0136336)
(-0.000174602 0.000243785 0.0132762)
(-0.000196055 0.000196055 0.0126516)
(0.000243785 0.000174602 0.0132762)
(0.000222676 0.000222676 0.0137922)
(0.000177974 0.000258438 0.0140056)
(0.000114089 0.000281702 0.0140744)
(3.91834e-05 0.000293035 0.0140889)
(-3.91834e-05 0.000293035 0.0140889)
(-0.000114089 0.000281702 0.0140744)
(-0.000177974 0.000258438 0.0140056)
(-0.000222676 0.000222676 0.0137922)
(-0.000243785 0.000174602 0.0132762)
(0.00028178 0.000142394 0.0136336)
(0.000258438 0.000177974 0.0140056)
(0.000204757 0.000204757 0.0140909)
(0.0001305 0.000221921 0.0140741)
(4.47144e-05 0.000230217 0.0140476)
(-4.47144e-05 0.000230217 0.0140476)
(-0.0001305 0.000221921 0.0140741)
(-0.000204757 0.000204757 0.0140909)
(-0.000258438 0.000177974 0.0140056)
(-0.00028178 0.000142394 0.0136336)
(0.000308126 9.19817e-05 0.0138127)
(0.000281702 0.000114089 0.0140744)
(0.000221921 0.0001305 0.0140741)
(0.000140942 0.000140942 0.014006)
(4.82244e-05 0.000145965 0.013957)
(-4.82244e-05 0.000145965 0.013957)
(-0.000140942 0.000140942 0.014006)
(-0.000221921 0.0001305 0.0140741)
(-0.000281702 0.000114089 0.0140744)
(-0.000308126 9.19817e-05 0.0138127)
(0.000321147 3.1699e-05 0.0138844)
(0.000293035 3.91834e-05 0.0140889)
(0.000230217 4.47144e-05 0.0140476)
(0.000145965 4.82244e-05 0.013957)
(4.99088e-05 4.99088e-05 0.0138987)
(-4.99087e-05 4.99088e-05 0.0138987)
(-0.000145965 4.82244e-05 0.013957)
(-0.000230217 4.47144e-05 0.0140476)
(-0.000293035 3.91834e-05 0.0140889)
(-0.000321147 3.1699e-05 0.0138844)
(0.000321147 -3.1699e-05 0.0138844)
(0.000293035 -3.91834e-05 0.0140889)
(0.000230217 -4.47144e-05 0.0140476)
(0.000145965 -4.82244e-05 0.013957)
(4.99088e-05 -4.99087e-05 0.0138987)
(-4.99087e-05 -4.99087e-05 0.0138987)
(-0.000145965 -4.82244e-05 0.013957)
(-0.000230217 -4.47144e-05 0.0140476)
(-0.000293035 -3.91834e-05 0.0140889)
(-0.000321147 -3.1699e-05 0.0138844)
(0.000308126 -9.19817e-05 0.0138127)
(0.000281702 -0.000114089 0.0140744)
(0.000221921 -0.0001305 0.0140741)
(0.000140942 -0.000140942 0.014006)
(4.82244e-05 -0.000145965 0.013957)
(-4.82244e-05 -0.000145965 0.013957)
(-0.000140942 -0.000140942 0.014006)
(-0.000221921 -0.0001305 0.0140741)
(-0.000281702 -0.000114089 0.0140744)
(-0.000308126 -9.19817e-05 0.0138127)
(0.00028178 -0.000142394 0.0136336)
(0.000258438 -0.000177974 0.0140056)
(0.000204757 -0.000204757 0.0140909)
(0.0001305 -0.000221921 0.0140741)
(4.47144e-05 -0.000230217 0.0140476)
(-4.47144e-05 -0.000230217 0.0140476)
(-0.0001305 -0.000221921 0.0140741)
(-0.000204757 -0.000204757 0.0140909)
(-0.000258438 -0.000177974 0.0140056)
(-0.00028178 -0.000142394 0.0136336)
(0.000243785 -0.000174602 0.0132762)
(0.000222676 -0.000222676 0.0137922)
(0.000177974 -0.000258438 0.0140056)
(0.000114089 -0.000281702 0.0140744)
(3.91834e-05 -0.000293035 0.0140889)
(-3.91834e-05 -0.000293035 0.0140889)
(-0.000114089 -0.000281702 0.0140744)
(-0.000177974 -0.000258438 0.0140056)
(-0.000222676 -0.000222676 0.0137922)
(-0.000243785 -0.000174602 0.0132762)
(0.000196055 -0.000196055 0.0126516)
(0.000174602 -0.000243785 0.0132762)
(0.000142394 -0.00028178 0.0136336)
(9.19817e-05 -0.000308126 0.0138127)
(3.1699e-05 -0.000321147 0.0138844)
(-3.1699e-05 -0.000321147 0.0138844)
(-9.19817e-05 -0.000308126 0.0138127)
(-0.000142394 -0.00028178 0.0136336)
(-0.000174602 -0.000243785 0.0132762)
(-0.000196055 -0.000196055 0.0126516)
(8.784e-05 8.784e-05 0.0125731)
(8.13968e-05 0.000114603 0.0132485)
(6.93834e-05 0.000137514 0.013654)
(4.59468e-05 0.000154323 0.013869)
(1.60424e-05 0.000162877 0.0139595)
(-1.60424e-05 0.000162877 0.0139595)
(-4.59468e-05 0.000154323 0.013869)
(-6.93834e-05 0.000137514 0.013654)
(-8.13969e-05 0.000114603 0.0132485)
(-8.784e-05 8.784e-05 0.0125731)
(0.000114603 8.13968e-05 0.0132485)
(0.000110828 0.000110828 0.0138463)
(9.28112e-05 0.00013475 0.014127)
(6.12455e-05 0.000151487 0.0142426)
(2.13383e-05 0.000159981 0.0142808)
(-2.13383e-05 0.000159981 0.0142808)
(-6.12455e-05 0.000151487 0.0142426)
(-9.28112e-05 0.00013475 0.014127)
(-0.000110828 0.000110828 0.0138463)
(-0.000114603 8.13969e-05 0.0132485)
(0.000137514 6.93834e-05 0.013654)
(0.00013475 9.28112e-05 0.014127)
(0.000112226 0.000112226 0.0142909)
(7.37941e-05 0.000125638 0.0143261)
(2.56696e-05 0.000132404 0.0143254)
(-2.56696e-05 0.000132404 0.0143254)
(-7.37941e-05 0.000125638 0.0143261)
(-0.000112226 0.000112226 0.0142909)
(-0.00013475 9.28112e-05 0.014127)
(-0.000137514 6.93834e-05 0.013654)
(0.000154323 4.59468e-05 0.013869)
(0.000151487 6.12455e-05 0.0142426)
(0.000125638 7.37941e-05 0.0143261)
(8.23879e-05 8.23879e-05 0.0143122)
(2.86245e-05 8.66981e-05 0.0142896)
(-2.86245e-05 8.66981e-05 0.0142896)
(-8.23879e-05 8.23879e-05 0.0143122)
(-0.000125638 7.37941e-05 0.0143261)
(-0.000151487 6.12455e-05 0.0142426)
(-0.000154323 4.59468e-05 0.013869)
(0.000162877 1.60424e-05 0.0139595)
(0.000159981 2.13383e-05 0.0142808)
(0.000132404 2.56696e-05 0.0143254)
(8.66981e-05 2.86245e-05 0.0142896)
(3.01019e-05 3.01019e-05 0.0142578)
(-3.01019e-05 3.01019e-05 0.0142578)
(-8.66981e-05 2.86245e-05 0.0142896)
(-0.000132404 2.56696e-05 0.0143254)
(-0.000159981 2.13383e-05 0.0142808)
(-0.000162877 1.60424e-05 0.0139595)
(0.000162877 -1.60424e-05 0.0139595)
(0.000159981 -2.13383e-05 0.0142808)
(0.000132404 -2.56696e-05 0.0143254)
(8.66981e-05 -2.86245e-05 0.0142896)
(3.01019e-05 -3.01019e-05 0.0142578)
(-3.01019e-05 -3.01019e-05 0.0142578)
(-8.66981e-05 -2.86245e-05 0.0142896)
(-0.000132404 -2.56696e-05 0.0143254)
(-0.000159981 -2.13383e-05 0.0142808)
(-0.000162877 -1.60424e-05 0.0139595)
(0.000154323 -4.59468e-05 0.013869)
(0.000151487 -6.12455e-05 0.0142426)
(0.000125638 -7.37941e-05 0.0143261)
(8.23879e-05 -8.23879e-05 0.0143122)
(2.86245e-05 -8.66981e-05 0.0142896)
(-2.86245e-05 -8.66981e-05 0.0142896)
(-8.23879e-05 -8.23879e-05 0.0143122)
(-0.000125638 -7.37941e-05 0.0143261)
(-0.000151487 -6.12455e-05 0.0142426)
(-0.000154323 -4.59468e-05 0.013869)
(0.000137514 -6.93834e-05 0.013654)
(0.00013475 -9.28112e-05 0.014127)
(0.000112226 -0.000112226 0.0142909)
(7.37941e-05 -0.000125638 0.0143261)
(2.56696e-05 -0.000132404 0.0143254)
(-2.56696e-05 -0.000132404 0.0143254)
(-7.37941e-05 -0.000125638 0.0143261)
(-0.000112226 -0.000112226 0.0142909)
(-0.00013475 -9.28112e-05 0.014127)
(-0.000137514 -6.93834e-05 0.013654)
(0.000114603 -8.13968e-05 0.0132485)
(0.000110828 -0.000110828 0.0138463)
(9.28112e-05 -0.00013475 0.014127)
(6.12455e-05 -0.000151487 0.0142426)
(2.13383e-05 -0.000159981 0.0142808)
(-2.13383e-05 -0.000159981 0.0142808)
(-6.12455e-05 -0.000151487 0.0142426)
(-9.28112e-05 -0.00013475 0.014127)
(-0.000110828 -0.000110828 0.0138463)
(-0.000114603 -8.13968e-05 0.0132485)
(8.784e-05 -8.784e-05 0.0125731)
(8.13969e-05 -0.000114603 0.0132485)
(6.93834e-05 -0.000137514 0.013654)
(4.59468e-05 -0.000154323 0.013869)
(1.60424e-05 -0.000162877 0.0139595)
(-1.60424e-05 -0.000162877 0.0139595)
(-4.59468e-05 -0.000154323 0.013869)
(-6.93834e-05 -0.000137514 0.013654)
(-8.13968e-05 -0.000114603 0.0132485)
(-8.784e-05 -8.784e-05 0.0125731)
(3.37218e-05 3.37218e-05 0.0125242)
(3.26521e-05 4.61734e-05 0.0132181)
(2.91745e-05 5.76751e-05 0.0136444)
(1.98228e-05 6.65821e-05 0.0138766)
(7.02087e-06 7.12467e-05 0.0139768)
(-7.02087e-06 7.12467e-05 0.0139768)
(-1.98228e-05 6.65821e-05 0.0138766)
(-2.91745e-05 5.76751e-05 0.0136444)
(-3.26521e-05 4.61734e-05 0.0132181)
(-3.37218e-05 3.37218e-05 0.0125242)
(4.61734e-05 3.26521e-05 0.0132181)
(4.76762e-05 4.76762e-05 0.013853)
(4.20382e-05 6.09668e-05 0.0141693)
(2.86099e-05 7.08735e-05 0.0143122)
(1.01232e-05 7.60757e-05 0.014365)
(-1.01231e-05 7.60757e-05 0.014365)
(-2.86099e-05 7.08735e-05 0.0143122)
(-4.20382e-05 6.09668e-05 0.0141693)
(-4.76762e-05 4.76762e-05 0.013853)
(-4.61734e-05 3.26521e-05 0.0132181)
(5.76751e-05 2.91745e-05 0.0136444)
(6.09668e-05 4.20382e-05 0.0141693)
(5.36345e-05 5.36345e-05 0.0143802)
(3.64482e-05 6.2153e-05 0.01445)
(1.2881e-05 6.65939e-05 0.0144673)
(-1.2881e-05 6.65939e-05 0.0144673)
(-3.64482e-05 6.2153e-05 0.01445)
(-5.36345e-05 5.36345e-05 0.0143802)
(-6.09668e-05 4.20382e-05 0.0141693)
(-5.76751e-05 2.91745e-05 0.0136444)
(6.65821e-05 1.98228e-05 0.0138766)
(7.08735e-05 2.86099e-05 0.0143122)
(6.2153e-05 3.64482e-05 0.01445)
(4.21402e-05 4.21402e-05 0.0144748)
(1.4873e-05 4.50852e-05 0.014472)
(-1.4873e-05 4.50852e-05 0.014472)
(-4.21402e-05 4.21402e-05 0.0144748)
(-6.2153e-05 3.64482e-05 0.01445)
(-7.08735e-05 2.86099e-05 0.0143122)
(-6.65821e-05 1.98228e-05 0.0138766)
(7.12467e-05 7.02087e-06 0.0139768)
(7.60757e-05 1.01232e-05 0.014365)
(6.65939e-05 1.2881e-05 0.0144673)
(4.50852e-05 1.4873e-05 0.014472)
(1.58996e-05 1.58996e-05 0.0144608)
(-1.58996e-05 1.58996e-05 0.0144608)
(-4.50852e-05 1.4873e-05 0.014472)
(-6.65939e-05 1.2881e-05 0.0144673)
(-7.60757e-05 1.01232e-05 0.014365)
(-7.12467e-05 7.02087e-06 0.0139768)
(7.12467e-05 -7.02087e-06 0.0139768)
(7.60757e-05 -1.01232e-05 0.014365)
(6.65939e-05 -1.2881e-05 0.0144673)
(4.50852e-05 -1.4873e-05 0.014472)
(1.58996e-05 -1.58996e-05 0.0144608)
(-1.58996e-05 -1.58996e-05 0.0144608)
(-4.50852e-05 -1.4873e-05 0.014472)
(-6.65939e-05 -1.2881e-05 0.0144673)
(-7.60757e-05 -1.01232e-05 0.014365)
(-7.12467e-05 -7.02087e-06 0.0139768)
(6.65821e-05 -1.98228e-05 0.0138766)
(7.08735e-05 -2.86099e-05 0.0143122)
(6.2153e-05 -3.64482e-05 0.01445)
(4.21402e-05 -4.21402e-05 0.0144748)
(1.4873e-05 -4.50852e-05 0.014472)
(-1.4873e-05 -4.50852e-05 0.014472)
(-4.21402e-05 -4.21402e-05 0.0144748)
(-6.2153e-05 -3.64482e-05 0.01445)
(-7.08735e-05 -2.86099e-05 0.0143122)
(-6.65821e-05 -1.98228e-05 0.0138766)
(5.76751e-05 -2.91745e-05 0.0136444)
(6.09669e-05 -4.20382e-05 0.0141693)
(5.36345e-05 -5.36345e-05 0.0143802)
(3.64482e-05 -6.2153e-05 0.01445)
(1.2881e-05 -6.65939e-05 0.0144673)
(-1.2881e-05 -6.65939e-05 0.0144673)
(-3.64482e-05 -6.2153e-05 0.01445)
(-5.36345e-05 -5.36345e-05 0.0143802)
(-6.09668e-05 -4.20382e-05 0.0141693)
(-5.76751e-05 -2.91745e-05 0.0136444)
(4.61734e-05 -3.26521e-05 0.0132181)
(4.76762e-05 -4.76762e-05 0.013853)
(4.20382e-05 -6.09668e-05 0.0141693)
(2.86099e-05 -7.08735e-05 0.0143122)
(1.01232e-05 -7.60757e-05 0.014365)
(-1.01232e-05 -7.60757e-05 0.014365)
(-2.86099e-05 -7.08735e-05 0.0143122)
(-4.20382e-05 -6.09668e-05 0.0141693)
(-4.76762e-05 -4.76762e-05 0.013853)
(-4.61734e-05 -3.26521e-05 0.0132181)
(3.37218e-05 -3.37218e-05 0.0125242)
(3.26521e-05 -4.61734e-05 0.0132181)
(2.91745e-05 -5.76751e-05 0.0136444)
(1.98228e-05 -6.65821e-05 0.0138766)
(7.02087e-06 -7.12467e-05 0.0139768)
(-7.02087e-06 -7.12467e-05 0.0139768)
(-1.98228e-05 -6.65821e-05 0.0138766)
(-2.91745e-05 -5.76751e-05 0.0136444)
(-3.26521e-05 -4.61734e-05 0.0132181)
(-3.37218e-05 -3.37218e-05 0.0125242)
(1.11651e-05 1.11651e-05 0.0124974)
(1.15093e-05 1.62818e-05 0.0131957)
(1.09069e-05 2.13427e-05 0.0136291)
(7.64525e-06 2.54552e-05 0.0138681)
(2.75506e-06 2.76666e-05 0.0139724)
(-2.75506e-06 2.76666e-05 0.0139724)
(-7.64525e-06 2.54552e-05 0.0138681)
(-1.09069e-05 2.13427e-05 0.0136291)
(-1.15093e-05 1.62818e-05 0.0131957)
(-1.11651e-05 1.11651e-05 0.0124974)
(1.62818e-05 1.15093e-05 0.0131957)
(1.82544e-05 1.82544e-05 0.0138442)
(1.70743e-05 2.46753e-05 0.0141764)
(1.2019e-05 2.97122e-05 0.014333)
(4.32464e-06 3.24302e-05 0.0143935)
(-4.32463e-06 3.24302e-05 0.0143935)
(-1.2019e-05 2.97122e-05 0.014333)
(-1.70743e-05 2.46753e-05 0.0141764)
(-1.82544e-05 1.82544e-05 0.0138442)
(-1.62818e-05 1.15093e-05 0.0131957)
(2.13427e-05 1.09069e-05 0.0136291)
(2.46753e-05 1.70743e-05 0.0141764)
(2.30282e-05 2.30282e-05 0.0144115)
(1.61884e-05 2.76161e-05 0.0145006)
(5.81369e-06 3.00682e-05 0.0145285)
(-5.81368e-06 3.00682e-05 0.0145285)
(-1.61884e-05 2.76161e-05 0.0145006)
(-2.30282e-05 2.30282e-05 0.0144115)
(-2.46753e-05 1.70743e-05 0.0141764)
(-2.13427e-05 1.09069e-05 0.0136291)
(2.54552e-05 7.64524e-06 0.0138681)
(2.97122e-05 1.2019e-05 0.014333)
(2.76161e-05 1.61884e-05 0.0145006)
(1.93563e-05 1.93563e-05 0.0145485)
(6.93767e-06 2.10341e-05 0.014558)
(-6.93766e-06 2.10341e-05 0.014558)
(-1.93563e-05 1.93563e-05 0.0145485)
(-2.76161e-05 1.61884e-05 0.0145006)
(-2.97122e-05 1.2019e-05 0.014333)
(-2.54552e-05 7.64525e-06 0.0138681)
(2.76666e-05 2.75506e-06 0.0139724)
(3.24302e-05 4.32464e-06 0.0143935)
(3.00682e-05 5.81368e-06 0.0145285)
(2.10341e-05 6.93767e-06 0.014558)
(7.53014e-06 7.53014e-06 0.0145599)
(-7.53014e-06 7.53014e-06 0.0145599)
(-2.1034e-05 6.93767e-06 0.014558)
(-3.00682e-05 5.81369e-06 0.0145285)
(-3.24302e-05 4.32464e-06 0.0143935)
(-2.76666e-05 2.75506e-06 0.0139724)
(2.76666e-05 -2.75506e-06 0.0139724)
(3.24302e-05 -4.32464e-06 0.0143935)
(3.00682e-05 -5.81368e-06 0.0145285)
(2.10341e-05 -6.93766e-06 0.014558)
(7.53014e-06 -7.53014e-06 0.0145599)
(-7.53014e-06 -7.53014e-06 0.0145599)
(-2.1034e-05 -6.93766e-06 0.014558)
(-3.00682e-05 -5.81368e-06 0.0145285)
(-3.24302e-05 -4.32463e-06 0.0143935)
(-2.76666e-05 -2.75506e-06 0.0139724)
(2.54552e-05 -7.64525e-06 0.0138681)
(2.97122e-05 -1.2019e-05 0.014333)
(2.76161e-05 -1.61884e-05 0.0145006)
(1.93563e-05 -1.93563e-05 0.0145485)
(6.93767e-06 -2.10341e-05 0.014558)
(-6.93766e-06 -2.10341e-05 0.014558)
(-1.93563e-05 -1.93563e-05 0.0145485)
(-2.76161e-05 -1.61884e-05 0.0145006)
(-2.97122e-05 -1.2019e-05 0.014333)
(-2.54552e-05 -7.64525e-06 0.0138681)
(2.13427e-05 -1.09069e-05 0.0136291)
(2.46753e-05 -1.70743e-05 0.0141764)
(2.30282e-05 -2.30282e-05 0.0144115)
(1.61884e-05 -2.76161e-05 0.0145006)
(5.81369e-06 -3.00682e-05 0.0145285)
(-5.81368e-06 -3.00682e-05 0.0145285)
(-1.61884e-05 -2.76161e-05 0.0145006)
(-2.30282e-05 -2.30282e-05 0.0144115)
(-2.46753e-05 -1.70743e-05 0.0141764)
(-2.13427e-05 -1.09069e-05 0.0136291)
(1.62818e-05 -1.15093e-05 0.0131957)
(1.82544e-05 -1.82544e-05 0.0138442)
(1.70743e-05 -2.46753e-05 0.0141764)
(1.2019e-05 -2.97122e-05 0.014333)
(4.32464e-06 -3.24302e-05 0.0143935)
(-4.32463e-06 -3.24302e-05 0.0143935)
(-1.2019e-05 -2.97122e-05 0.014333)
(-1.70743e-05 -2.46753e-05 0.0141764)
(-1.82544e-05 -1.82544e-05 0.0138442)
(-1.62818e-05 -1.15093e-05 0.0131957)
(1.11651e-05 -1.11651e-05 0.0124974)
(1.15093e-05 -1.62818e-05 0.0131957)
(1.09069e-05 -2.13427e-05 0.0136291)
(7.64525e-06 -2.54552e-05 0.0138681)
(2.75506e-06 -2.76666e-05 0.0139724)