/*--------------------------------*- C++ -*----------------------------------*\
| =========                 |                                                 |
| \\      /  F ield         | OpenFOAM: The Open Source CFD Toolbox           |
|  \\    /   O peration     | Version:  2412                                  |
|   \\  /    A nd           | Website:  www.openfoam.com                      |
|    \\/     M anipulation  |                                                 |
\*---------------------------------------------------------------------------*/
FoamFile
{
    version     2.0;
    format      ascii;
    arch        "LSB;label=32;scalar=64";
    class       surfaceScalarField;
    location    "7.5";
    object      phi;
}
// * * * * * * * * * * * * * * * * * * * * * * * * * * * * * * * * * * * * * //

dimensions      [0 3 -1 0 0 0 0];

oriented        oriented;

internalField   nonuniform List<scalar> 
43700
(
1.85255e-07
1.85255e-07
5.49801e-07
-2.25146e-07
-2.25146e-07
1.3716e-07
1.64475e-07
5.93822e-07
-2.00816e-07
9.09038e-08
1.51055e-07
6.25112e-07
-1.90481e-07
4.51296e-08
1.42095e-07
6.4522e-07
-1.81829e-07
-4.56811e-17
1.37782e-07
6.55109e-07
-1.77833e-07
-4.51296e-08
1.37782e-07
6.55109e-07
-1.77833e-07
-9.09038e-08
1.42095e-07
6.4522e-07
-1.81829e-07
-1.3716e-07
1.51055e-07
6.25112e-07
-1.90481e-07
-1.85255e-07
1.64475e-07
5.93822e-07
-2.00816e-07
1.85255e-07
5.49801e-07
-2.25146e-07
-2.25146e-07
1.64475e-07
1.3716e-07
5.93822e-07
-2.00816e-07
1.22427e-07
1.22427e-07
6.29938e-07
8.07126e-08
1.11213e-07
6.55246e-07
3.99829e-08
1.03712e-07
6.7161e-07
-3.1871e-18
1.00037e-07
6.797e-07
-3.99829e-08
1.00037e-07
6.797e-07
-8.07126e-08
1.03712e-07
6.7161e-07
-1.22427e-07
1.11213e-07
6.55246e-07
-1.64475e-07
1.22427e-07
6.29938e-07
1.3716e-07
5.93822e-07
-2.00816e-07
1.51055e-07
9.09038e-08
6.25112e-07
-1.90481e-07
1.11213e-07
8.07126e-08
6.55246e-07
7.28569e-08
7.28569e-08
6.76586e-07
3.59868e-08
6.75875e-08
6.90557e-07
2.35104e-16
6.49893e-08
6.97512e-07
-3.59868e-08
6.49893e-08
6.97512e-07
-7.28569e-08
6.75875e-08
6.90557e-07
-1.11213e-07
7.28569e-08
6.76586e-07
-1.51055e-07
8.07126e-08
6.55246e-07
9.09038e-08
6.25112e-07
-1.90481e-07
1.42095e-07
4.51296e-08
6.4522e-07
-1.81829e-07
1.03712e-07
3.99829e-08
6.7161e-07
6.75875e-08
3.59868e-08
6.90557e-07
3.32922e-08
3.32922e-08
7.03093e-07
-4.44641e-18
3.19583e-08
7.09365e-07
-3.32922e-08
3.19583e-08
7.09365e-07
-6.75875e-08
3.32922e-08
7.03093e-07
-1.03712e-07
3.59868e-08
6.90557e-07
-1.42095e-07
3.99829e-08
6.7161e-07
4.51296e-08
6.4522e-07
-1.81829e-07
1.37782e-07
1.81058e-16
6.55109e-07
-1.77833e-07
1.00037e-07
-3.68526e-17
6.797e-07
6.49893e-08
-1.64151e-17
6.97512e-07
3.19583e-08
-8.74444e-17
7.09365e-07
-2.66547e-16
-2.82342e-16
7.15309e-07
-3.19583e-08
-1.18179e-16
7.15309e-07
-6.49893e-08
-5.34098e-17
7.09365e-07
-1.00037e-07
-1.8246e-16
6.97512e-07
-1.37782e-07
-2.79281e-16
6.797e-07
6.45487e-17
6.55109e-07
-1.77833e-07
1.37782e-07
-4.51296e-08
6.55109e-07
-1.77833e-07
1.00037e-07
-3.99829e-08
6.797e-07
6.49893e-08
-3.59868e-08
6.97512e-07
3.19583e-08
-3.32922e-08
7.09365e-07
-1.19897e-17
-3.19583e-08
7.15309e-07
-3.19583e-08
-3.19583e-08
7.15309e-07
-6.49893e-08
-3.32922e-08
7.09365e-07
-1.00037e-07
-3.59868e-08
6.97512e-07
-1.37782e-07
-3.99829e-08
6.797e-07
-4.51296e-08
6.55109e-07
-1.77833e-07
1.42095e-07
-9.09038e-08
6.4522e-07
-1.81829e-07
1.03712e-07
-8.07126e-08
6.7161e-07
6.75875e-08
-7.28569e-08
6.90557e-07
3.32922e-08
-6.75875e-08
7.03093e-07
-2.00117e-16
-6.49893e-08
7.09365e-07
-3.32922e-08
-6.49893e-08
7.09365e-07
-6.75875e-08
-6.75875e-08
7.03093e-07
-1.03712e-07
-7.28569e-08
6.90557e-07
-1.42095e-07
-8.07126e-08
6.7161e-07
-9.09038e-08
6.4522e-07
-1.81829e-07
1.51055e-07
-1.3716e-07
6.25112e-07
-1.90481e-07
1.11213e-07
-1.22427e-07
6.55246e-07
7.28569e-08
-1.11213e-07
6.76586e-07
3.59868e-08
-1.03712e-07
6.90557e-07
-4.65589e-16
-1.00037e-07
6.97512e-07
-3.59868e-08
-1.00037e-07
6.97512e-07
-7.28569e-08
-1.03712e-07
6.90557e-07
-1.11213e-07
-1.11213e-07
6.76586e-07
-1.51055e-07
-1.22427e-07
6.55246e-07
-1.3716e-07
6.25112e-07
-1.90481e-07
1.64475e-07
-1.85255e-07
5.93822e-07
-2.00816e-07
1.22427e-07
-1.64475e-07
6.29938e-07
8.07126e-08
-1.51055e-07
6.55246e-07
3.99829e-08
-1.42095e-07
6.7161e-07
-4.79082e-16
-1.37782e-07
6.797e-07
-3.99829e-08
-1.37782e-07
6.797e-07
-8.07126e-08
-1.42095e-07
6.7161e-07
-1.22427e-07
-1.51055e-07
6.55246e-07
-1.64475e-07
-1.64475e-07
6.29938e-07
-1.85255e-07
5.93822e-07
-2.00816e-07
1.85255e-07
5.49801e-07
-2.25146e-07
-2.25146e-07
1.3716e-07
5.93822e-07
-2.00816e-07
9.09038e-08
6.25112e-07
-1.90481e-07
4.51296e-08
6.4522e-07
-1.81829e-07
1.32828e-16
6.55109e-07
-1.77833e-07
-4.51296e-08
6.55109e-07
-1.77833e-07
-9.09038e-08
6.4522e-07
-1.81829e-07
-1.3716e-07
6.25112e-07
-1.90481e-07
-1.85255e-07
5.93822e-07
-2.00816e-07
5.49801e-07
-2.25146e-07
-2.25146e-07
1.29575e-07
1.29575e-07
5.86474e-07
-1.47912e-07
-1.47912e-07
1.02093e-07
1.27306e-07
6.42557e-07
-1.48559e-07
6.98099e-08
1.2381e-07
6.81175e-07
-1.4759e-07
3.52635e-08
1.20443e-07
7.05072e-07
-1.45748e-07
-2.70397e-16
1.18665e-07
7.16503e-07
-1.44795e-07
-3.52635e-08
1.18665e-07
7.16503e-07
-1.44795e-07
-6.98099e-08
1.20443e-07
7.05072e-07
-1.45748e-07
-1.02093e-07
1.2381e-07
6.81175e-07
-1.4759e-07
-1.29575e-07
1.27306e-07
6.42557e-07
-1.48559e-07
1.29575e-07
5.86474e-07
-1.47912e-07
-1.47912e-07
1.27306e-07
1.02093e-07
6.42557e-07
-1.48559e-07
9.82415e-08
9.82415e-08
6.88068e-07
6.61637e-08
9.3874e-08
7.1726e-07
3.31325e-08
9.03122e-08
7.34772e-07
1.76229e-16
8.84529e-08
7.43045e-07
-3.31325e-08
8.84529e-08
7.43045e-07
-6.61637e-08
9.03122e-08
7.34772e-07
-9.82415e-08
9.3874e-08
7.1726e-07
-1.27306e-07
9.82415e-08
6.88068e-07
1.02093e-07
6.42557e-07
-1.48559e-07
1.2381e-07
6.98099e-08
6.81175e-07
-1.4759e-07
9.3874e-08
6.61637e-08
7.1726e-07
6.24502e-08
6.24502e-08
7.39434e-07
3.10758e-08
5.96461e-08
7.52597e-07
3.34172e-16
5.82079e-08
7.58833e-07
-3.10758e-08
5.82079e-08
7.58833e-07
-6.24502e-08
5.9646e-08
7.52597e-07
-9.3874e-08
6.24502e-08
7.39434e-07
-1.2381e-07
6.61637e-08
7.1726e-07
6.98099e-08
6.81175e-07
-1.4759e-07
1.20443e-07
3.52635e-08
7.05072e-07
-1.45748e-07
9.03122e-08
3.31325e-08
7.34772e-07
5.96461e-08
3.10758e-08
7.52597e-07
2.95741e-08
2.95741e-08
7.63237e-07
1.17537e-16
2.88116e-08
7.68336e-07
-2.95741e-08
2.88116e-08
7.68336e-07
-5.96461e-08
2.95741e-08
7.63237e-07
-9.03122e-08
3.10758e-08
7.52597e-07
-1.20443e-07
3.31325e-08
7.34772e-07
3.52635e-08
7.05072e-07
-1.45748e-07
1.18665e-07
-4.68605e-16
7.16503e-07
-1.44795e-07
8.84529e-08
-3.56289e-17
7.43045e-07
5.82079e-08
3.52092e-16
7.58833e-07
2.88116e-08
1.01758e-16
7.68336e-07
-1.68862e-16
-3.36198e-16
7.72932e-07
-2.88116e-08
-2.81176e-16
7.72932e-07
-5.82079e-08
-5.11093e-17
7.68336e-07
-8.84529e-08
1.06548e-16
7.58833e-07
-1.18665e-07
4.0524e-18
7.43045e-07
5.18805e-17
7.16503e-07
-1.44795e-07
1.18665e-07
-3.52635e-08
7.16503e-07
-1.44795e-07
8.84529e-08
-3.31325e-08
7.43045e-07
5.82079e-08
-3.10758e-08
7.58833e-07
2.88116e-08
-2.95741e-08
7.68336e-07
2.37572e-17
-2.88116e-08
7.72932e-07
-2.88116e-08
-2.88116e-08
7.72932e-07
-5.82079e-08
-2.95741e-08
7.68336e-07
-8.84529e-08
-3.10758e-08
7.58833e-07
-1.18665e-07
-3.31325e-08
7.43045e-07
-3.52635e-08
7.16503e-07
-1.44795e-07
1.20443e-07
-6.98099e-08
7.05072e-07
-1.45748e-07
9.03122e-08
-6.61637e-08
7.34772e-07
5.96461e-08
-6.24502e-08
7.52597e-07
2.95741e-08
-5.96461e-08
7.63237e-07
-2.53741e-16
-5.82079e-08
7.68336e-07
-2.95741e-08
-5.82079e-08
7.68336e-07
-5.96461e-08
-5.96461e-08
7.63237e-07
-9.03122e-08
-6.24502e-08
7.52597e-07
-1.20443e-07
-6.61637e-08
7.34772e-07
-6.98099e-08
7.05072e-07
-1.45748e-07
1.2381e-07
-1.02093e-07
6.81175e-07
-1.4759e-07
9.3874e-08
-9.82415e-08
7.1726e-07
6.24502e-08
-9.3874e-08
7.39434e-07
3.10758e-08
-9.03122e-08
7.52597e-07
-5.46052e-16
-8.84529e-08
7.58833e-07
-3.10758e-08
-8.84529e-08
7.58833e-07
-6.24502e-08
-9.03122e-08
7.52597e-07
-9.3874e-08
-9.3874e-08
7.39434e-07
-1.2381e-07
-9.82415e-08
7.1726e-07
-1.02093e-07
6.81175e-07
-1.4759e-07
1.27306e-07
-1.29575e-07
6.42557e-07
-1.48559e-07
9.82415e-08
-1.27306e-07
6.88068e-07
6.61637e-08
-1.2381e-07
7.1726e-07
3.31325e-08
-1.20443e-07
7.34772e-07
-4.82788e-16
-1.18665e-07
7.43045e-07
-3.31325e-08
-1.18665e-07
7.43045e-07
-6.61637e-08
-1.20443e-07
7.34772e-07
-9.82415e-08
-1.2381e-07
7.1726e-07
-1.27306e-07
-1.27306e-07
6.88068e-07
-1.29575e-07
6.42557e-07
-1.48559e-07
1.29575e-07
5.86474e-07
-1.47912e-07
-1.47912e-07
1.02093e-07
6.42557e-07
-1.48559e-07
6.98099e-08
6.81175e-07
-1.4759e-07
3.52635e-08
7.05072e-07
-1.45748e-07
2.3712e-16
7.16503e-07
-1.44795e-07
-3.52635e-08
7.16503e-07
-1.44795e-07
-6.98099e-08
7.05072e-07
-1.45748e-07
-1.02093e-07
6.81175e-07
-1.4759e-07
-1.29575e-07
6.42557e-07
-1.48559e-07
5.86474e-07
-1.47912e-07
-1.47912e-07
9.81815e-08
9.81815e-08
5.96606e-07
-1.03248e-07
-1.03248e-07
8.23346e-08
1.03661e-07
6.65477e-07
-1.10734e-07
5.86534e-08
1.05823e-07
7.13475e-07
-1.14441e-07
3.0371e-08
1.06146e-07
7.43262e-07
-1.16053e-07
4.31282e-17
1.06083e-07
7.57472e-07
-1.1668e-07
-3.0371e-08
1.06083e-07
7.57472e-07
-1.1668e-07
-5.86534e-08
1.06146e-07
7.43262e-07
-1.16053e-07
-8.23346e-08
1.05823e-07
7.13475e-07
-1.14441e-07
-9.81815e-08
1.03661e-07
6.65477e-07
-1.10734e-07
9.81815e-08
5.96606e-07
-1.03248e-07
-1.03248e-07
1.03661e-07
8.23346e-08
6.65477e-07
-1.10734e-07
8.53927e-08
8.53927e-08
7.24604e-07
6.01445e-08
8.60228e-08
7.62308e-07
3.0931e-08
8.55605e-08
7.84571e-07
6.7361e-16
8.51305e-08
7.94928e-07
-3.0931e-08
8.51305e-08
7.94928e-07
-6.01445e-08
8.55605e-08
7.84571e-07
-8.53927e-08
8.60228e-08
7.62308e-07
-1.03661e-07
8.53927e-08
7.24604e-07
8.23347e-08
6.65477e-07
-1.10734e-07
1.05823e-07
5.86534e-08
7.13475e-07
-1.14441e-07
8.60228e-08
6.01445e-08
7.62308e-07
6.00231e-08
6.00231e-08
7.91433e-07
3.0719e-08
5.9376e-08
8.08086e-07
5.78634e-16
5.89204e-08
8.15762e-07
-3.0719e-08
5.89204e-08
8.15762e-07
-6.00231e-08
5.9376e-08
8.08086e-07
-8.60228e-08
6.00231e-08
7.91433e-07
-1.05823e-07
6.01445e-08
7.62308e-07
5.86534e-08
7.13475e-07
-1.14441e-07
1.06146e-07
3.0371e-08
7.43262e-07
-1.16053e-07
8.55605e-08
3.0931e-08
7.84571e-07
5.9376e-08
3.0719e-08
8.08086e-07
3.03084e-08
3.03084e-08
8.21372e-07
1.56245e-16
3.00394e-08
8.27525e-07
-3.03084e-08
3.00394e-08
8.27525e-07
-5.9376e-08
3.03084e-08
8.21372e-07
-8.55605e-08
3.0719e-08
8.08086e-07
-1.06146e-07
3.0931e-08
7.84571e-07
3.0371e-08
7.43262e-07
-1.16053e-07
1.06083e-07
-1.24208e-16
7.57472e-07
-1.1668e-07
8.51305e-08
5.48988e-16
7.94928e-07
5.89204e-08
5.11867e-16
8.15762e-07
3.00394e-08
5.15899e-17
8.27525e-07
8.3169e-17
-6.10473e-17
8.33011e-07
-3.00394e-08
2.34686e-16
8.33011e-07
-5.89204e-08
4.24231e-16
8.27525e-07
-8.51305e-08
1.17942e-16
8.15762e-07
-1.06083e-07
-5.18985e-16
7.94928e-07
-4.41171e-16
7.57472e-07
-1.1668e-07
1.06083e-07
-3.0371e-08
7.57472e-07
-1.1668e-07
8.51305e-08
-3.0931e-08
7.94928e-07
5.89204e-08
-3.0719e-08
8.15762e-07
3.00394e-08
-3.03084e-08
8.27525e-07
4.21434e-16
-3.00394e-08
8.33011e-07
-3.00394e-08
-3.00394e-08
8.33011e-07
-5.89204e-08
-3.03084e-08
8.27525e-07
-8.51305e-08
-3.0719e-08
8.15762e-07
-1.06083e-07
-3.0931e-08
7.94928e-07
-3.0371e-08
7.57472e-07
-1.1668e-07
1.06146e-07
-5.86534e-08
7.43262e-07
-1.16053e-07
8.55605e-08
-6.01445e-08
7.84571e-07
5.9376e-08
-6.00231e-08
8.08086e-07
3.03084e-08
-5.9376e-08
8.21372e-07
2.73917e-16
-5.89204e-08
8.27525e-07
-3.03084e-08
-5.89204e-08
8.27525e-07
-5.9376e-08
-5.9376e-08
8.21372e-07
-8.55605e-08
-6.00231e-08
8.08086e-07
-1.06146e-07
-6.01445e-08
7.84571e-07
-5.86534e-08
7.43262e-07
-1.16053e-07
1.05823e-07
-8.23346e-08
7.13475e-07
-1.14441e-07
8.60228e-08
-8.53927e-08
7.62308e-07
6.00231e-08
-8.60228e-08
7.91433e-07
3.0719e-08
-8.55605e-08
8.08086e-07
-3.30161e-16
-8.51305e-08
8.15762e-07
-3.0719e-08
-8.51305e-08
8.15762e-07
-6.00231e-08
-8.55605e-08
8.08086e-07
-8.60228e-08
-8.60228e-08
7.91433e-07
-1.05823e-07
-8.53927e-08
7.62308e-07
-8.23347e-08
7.13475e-07
-1.14441e-07
1.03661e-07
-9.81815e-08
6.65477e-07
-1.10734e-07
8.53927e-08
-1.03661e-07
7.24604e-07
6.01445e-08
-1.05823e-07
7.62308e-07
3.0931e-08
-1.06146e-07
7.84571e-07
-1.22992e-15
-1.06083e-07
7.94928e-07
-3.0931e-08
-1.06083e-07
7.94928e-07
-6.01445e-08
-1.06146e-07
7.84571e-07
-8.53927e-08
-1.05823e-07
7.62308e-07
-1.03661e-07
-1.03661e-07
7.24604e-07
-9.81815e-08
6.65477e-07
-1.10734e-07
9.81815e-08
5.96606e-07
-1.03248e-07
-1.03248e-07
8.23347e-08
6.65477e-07
-1.10734e-07
5.86534e-08
7.13475e-07
-1.14441e-07
3.0371e-08
7.43262e-07
-1.16053e-07
-4.00262e-16
7.57472e-07
-1.1668e-07
-3.0371e-08
7.57472e-07
-1.1668e-07
-5.86534e-08
7.43262e-07
-1.16053e-07
-8.23346e-08
7.13475e-07
-1.14441e-07
-9.81815e-08
6.65477e-07
-1.10734e-07
5.96606e-07
-1.03248e-07
-1.03248e-07
4.79415e-08
4.79415e-08
5.95914e-07
-4.75953e-08
-4.75953e-08
4.23772e-08
5.46635e-08
6.70986e-07
-5.46079e-08
3.12924e-08
5.88399e-08
7.2447e-07
-5.87503e-08
1.65741e-08
6.11292e-08
7.58159e-07
-6.13082e-08
1.97152e-16
6.21382e-08
7.74358e-07
-6.24502e-08
-1.65741e-08
6.21383e-08
7.74358e-07
-6.24502e-08
-3.12924e-08
6.11292e-08
7.58159e-07
-6.13082e-08
-4.23772e-08
5.88399e-08
7.2447e-07
-5.87503e-08
-4.79415e-08
5.46635e-08
6.70986e-07
-5.46079e-08
4.79415e-08
5.95914e-07
-4.75953e-08
-4.75953e-08
5.46635e-08
4.23772e-08
6.70986e-07
-5.46079e-08
4.76216e-08
4.76216e-08
7.38688e-07
3.48998e-08
5.08774e-08
7.82992e-07
1.83868e-08
5.25985e-08
8.09615e-07
1.5762e-15
5.33338e-08
8.22119e-07
-1.83868e-08
5.33338e-08
8.22119e-07
-3.48998e-08
5.25985e-08
8.09615e-07
-4.76216e-08
5.08774e-08
7.82992e-07
-5.46635e-08
4.76216e-08
7.38688e-07
4.23772e-08
6.70986e-07
-5.46079e-08
5.88399e-08
3.12924e-08
7.2447e-07
-5.87503e-08
5.08774e-08
3.48998e-08
7.82992e-07
3.7067e-08
3.7067e-08
8.19054e-07
1.94632e-08
3.81895e-08
8.40099e-07
1.31529e-15
3.86577e-08
8.49902e-07
-1.94632e-08
3.86577e-08
8.49902e-07
-3.7067e-08
3.81895e-08
8.40099e-07
-5.08774e-08
3.7067e-08
8.19054e-07
-5.88399e-08
3.48998e-08
7.82992e-07
3.12924e-08
7.2447e-07
-5.87503e-08
6.11292e-08
1.65741e-08
7.58159e-07
-6.13082e-08
5.25985e-08
1.83868e-08
8.09615e-07
3.81895e-08
1.94632e-08
8.40099e-07
2.00182e-08
2.00182e-08
8.57715e-07
7.05665e-16
2.02471e-08
8.65954e-07
-2.00182e-08
2.02471e-08
8.65954e-07
-3.81895e-08
2.00182e-08
8.57715e-07
-5.25985e-08
1.94632e-08
8.40099e-07
-6.11292e-08
1.83868e-08
8.09615e-07
1.65741e-08
7.58159e-07
-6.13082e-08
6.21382e-08
-5.93559e-18
7.74358e-07
-6.24502e-08
5.33338e-08
1.47903e-15
8.22119e-07
3.86577e-08
1.34217e-15
8.49902e-07
2.02471e-08
8.60602e-16
8.65954e-07
5.72295e-16
6.68074e-16
8.73505e-07
-2.02471e-08
7.42926e-16
8.73505e-07
-3.86577e-08
7.67715e-16
8.65954e-07
-5.33338e-08
2.82652e-16
8.49902e-07
-6.21382e-08
-9.66303e-16
8.22119e-07
-7.89483e-16
7.74358e-07
-6.24502e-08
6.21383e-08
-1.65741e-08
7.74358e-07
-6.24502e-08
5.33338e-08
-1.83868e-08
8.22119e-07
3.86577e-08
-1.94632e-08
8.49902e-07
2.02471e-08
-2.00182e-08
8.65954e-07
6.39833e-16
-2.02471e-08
8.73505e-07
-2.02471e-08
-2.02471e-08
8.73505e-07
-3.86577e-08
-2.00182e-08
8.65954e-07
-5.33338e-08
-1.94632e-08
8.49902e-07
-6.21382e-08
-1.83868e-08
8.22119e-07
-1.65741e-08
7.74358e-07
-6.24502e-08
6.11292e-08
-3.12924e-08
7.58159e-07
-6.13082e-08
5.25985e-08
-3.48998e-08
8.09615e-07
3.81895e-08
-3.7067e-08
8.40099e-07
2.00182e-08
-3.81895e-08
8.57715e-07
4.05853e-16
-3.86577e-08
8.65954e-07
-2.00182e-08
-3.86577e-08
8.65954e-07
-3.81895e-08
-3.81895e-08
8.57715e-07
-5.25985e-08
-3.7067e-08
8.40099e-07
-6.11292e-08
-3.48998e-08
8.09615e-07
-3.12924e-08
7.58159e-07
-6.13082e-08
5.88399e-08
-4.23772e-08
7.2447e-07
-5.87503e-08
5.08774e-08
-4.76216e-08
7.82992e-07
3.7067e-08
-5.08774e-08
8.19054e-07
1.94632e-08
-5.25985e-08
8.40099e-07
-2.97016e-16
-5.33338e-08
8.49902e-07
-1.94632e-08
-5.33338e-08
8.49902e-07
-3.7067e-08
-5.25985e-08
8.40099e-07
-5.08774e-08
-5.08774e-08
8.19054e-07
-5.88399e-08
-4.76216e-08
7.82992e-07
-4.23772e-08
7.2447e-07
-5.87503e-08
5.46635e-08
-4.79415e-08
6.70986e-07
-5.46079e-08
4.76216e-08
-5.46635e-08
7.38688e-07
3.48998e-08
-5.88399e-08
7.82992e-07
1.83868e-08
-6.11292e-08
8.09615e-07
-1.60075e-15
-6.21382e-08
8.22119e-07
-1.83868e-08
-6.21382e-08
8.22119e-07
-3.48998e-08
-6.11292e-08
8.09615e-07
-4.76216e-08
-5.88399e-08
7.82992e-07
-5.46635e-08
-5.46635e-08
7.38688e-07
-4.79415e-08
6.70986e-07
-5.46079e-08
4.79415e-08
5.95914e-07
-4.75953e-08
-4.75953e-08
4.23772e-08
6.70986e-07
-5.46079e-08
3.12924e-08
7.2447e-07
-5.87503e-08
1.65741e-08
7.58159e-07
-6.13082e-08
-6.8129e-16
7.74358e-07
-6.24502e-08
-1.65741e-08
7.74358e-07
-6.24502e-08
-3.12924e-08
7.58159e-07
-6.13082e-08
-4.23772e-08
7.2447e-07
-5.87503e-08
-4.79415e-08
6.70986e-07
-5.46079e-08
5.95914e-07
-4.75953e-08
-4.75953e-08
2.33534e-08
2.33534e-08
5.93427e-07
-2.21101e-08
-2.21101e-08
2.1307e-08
2.76358e-08
6.71382e-07
-2.59853e-08
1.61261e-08
3.06588e-08
7.27666e-07
-2.86743e-08
8.67187e-09
3.25327e-08
7.63507e-07
-3.04263e-08
5.62844e-16
3.341e-08
7.80856e-07
-3.12366e-08
-8.67187e-09
3.341e-08
7.80856e-07
-3.12366e-08
-1.61261e-08
3.25327e-08
7.63507e-07
-3.04263e-08
-2.1307e-08
3.06588e-08
7.27666e-07
-2.86743e-08
-2.33534e-08
2.76358e-08
6.71382e-07
-2.59853e-08
2.33534e-08
5.93427e-07
-2.21101e-08
-2.21101e-08
2.76358e-08
2.1307e-08
6.71382e-07
-2.59853e-08
2.51269e-08
2.51269e-08
7.43706e-07
1.8968e-08
2.78243e-08
7.91985e-07
1.01733e-08
2.9457e-08
8.21485e-07
1.10692e-15
3.02158e-08
8.35486e-07
-1.01733e-08
3.02158e-08
8.35486e-07
-1.8968e-08
2.9457e-08
8.21485e-07
-2.51269e-08
2.78243e-08
7.91985e-07
-2.76358e-08
2.51269e-08
7.43706e-07
2.1307e-08
6.71382e-07
-2.59853e-08
3.06588e-08
1.61261e-08
7.27666e-07
-2.86743e-08
2.78243e-08
1.8968e-08
7.91985e-07
2.09535e-08
2.09535e-08
8.32796e-07
1.12157e-08
2.21374e-08
8.57156e-07
8.52429e-16
2.26806e-08
8.68653e-07
-1.12157e-08
2.26806e-08
8.68653e-07
-2.09535e-08
2.21374e-08
8.57156e-07
-2.78243e-08
2.09535e-08
8.32796e-07
-3.06588e-08
1.8968e-08
7.91985e-07
1.61261e-08
7.27666e-07
-2.86743e-08
3.25327e-08
8.67187e-09
7.63507e-07
-3.04263e-08
2.9457e-08
1.01733e-08
8.21485e-07
2.21374e-08
1.12157e-08
8.57156e-07
1.1834e-08
1.1834e-08
8.78322e-07
4.8412e-16
1.21154e-08
8.88353e-07
-1.1834e-08
1.21154e-08
8.88353e-07
-2.21374e-08
1.1834e-08
8.78322e-07
-2.9457e-08
1.12157e-08
8.57156e-07
-3.25327e-08
1.01733e-08
8.21485e-07
8.67187e-09
7.63507e-07
-3.04263e-08
3.341e-08
4.04179e-16
7.80856e-07
-3.12366e-08
3.02158e-08
1.24339e-15
8.35486e-07
2.26806e-08
1.23751e-15
8.68653e-07
1.21154e-08
9.60955e-16
8.88353e-07
6.15429e-16
8.94882e-16
8.97736e-07
-1.21154e-08
1.20546e-15
8.97736e-07
-2.26806e-08
1.17349e-15
8.88353e-07
-3.02158e-08
7.94675e-16
8.68653e-07
-3.341e-08
-3.61499e-16
8.35486e-07
-7.36258e-16
7.80856e-07
-3.12366e-08
3.341e-08
-8.67187e-09
7.80856e-07
-3.12366e-08
3.02158e-08
-1.01733e-08
8.35486e-07
2.26806e-08
-1.12157e-08
8.68653e-07
1.21154e-08
-1.1834e-08
8.88353e-07
8.85913e-16
-1.21154e-08
8.97736e-07
-1.21154e-08
-1.21154e-08
8.97736e-07
-2.26806e-08
-1.1834e-08
8.88353e-07
-3.02158e-08
-1.12157e-08
8.68653e-07
-3.341e-08
-1.01733e-08
8.35486e-07
-8.67187e-09
7.80856e-07
-3.12366e-08
3.25327e-08
-1.61261e-08
7.63507e-07
-3.04263e-08
2.9457e-08
-1.8968e-08
8.21485e-07
2.21374e-08
-2.09535e-08
8.57156e-07
1.1834e-08
-2.21374e-08
8.78322e-07
7.40923e-16
-2.26806e-08
8.88353e-07
-1.1834e-08
-2.26806e-08
8.88353e-07
-2.21374e-08
-2.21374e-08
8.78322e-07
-2.9457e-08
-2.09535e-08
8.57156e-07
-3.25327e-08
-1.8968e-08
8.21485e-07
-1.61261e-08
7.63507e-07
-3.04263e-08
3.06588e-08
-2.1307e-08
7.27666e-07
-2.86743e-08
2.78243e-08
-2.51269e-08
7.91985e-07
2.09535e-08
-2.78243e-08
8.32796e-07
1.12157e-08
-2.9457e-08
8.57156e-07
1.20778e-16
-3.02158e-08
8.68653e-07
-1.12157e-08
-3.02158e-08
8.68653e-07
-2.09535e-08
-2.9457e-08
8.57156e-07
-2.78243e-08
-2.78243e-08
8.32796e-07
-3.06588e-08
-2.51269e-08
7.91985e-07
-2.1307e-08
7.27666e-07
-2.86743e-08
2.76358e-08
-2.33534e-08
6.71382e-07
-2.59853e-08
2.51269e-08
-2.76358e-08
7.43706e-07
1.8968e-08
-3.06588e-08
7.91985e-07
1.01733e-08
-3.25327e-08
8.21485e-07
-1.04314e-15
-3.341e-08
8.35486e-07
-1.01733e-08
-3.341e-08
8.35486e-07
-1.8968e-08
-3.25327e-08
8.21485e-07
-2.51269e-08
-3.06588e-08
7.91985e-07
-2.76358e-08
-2.76358e-08
7.43706e-07
-2.33534e-08
6.71382e-07
-2.59853e-08
2.33534e-08
5.93427e-07
-2.21101e-08
-2.21101e-08
2.1307e-08
6.71382e-07
-2.59853e-08
1.61261e-08
7.27666e-07
-2.86743e-08
8.67187e-09
7.63507e-07
-3.04263e-08
-4.94588e-16
7.80856e-07
-3.12366e-08
-8.67187e-09
7.80856e-07
-3.12366e-08
-1.61261e-08
7.63507e-07
-3.04263e-08
-2.1307e-08
7.27666e-07
-2.86743e-08
-2.33534e-08
6.71382e-07
-2.59853e-08
5.93427e-07
-2.21101e-08
-2.21101e-08
9.20283e-09
9.20283e-09
5.91223e-07
-8.10094e-09
-8.10094e-09
8.87703e-09
1.16884e-08
6.70106e-07
-1.00871e-08
6.98478e-09
1.362e-08
7.27542e-07
-1.16032e-08
3.84417e-09
1.49178e-08
7.6439e-07
-1.26606e-08
2.60485e-16
1.55524e-08
7.82317e-07
-1.31688e-08
-3.84417e-09
1.55524e-08
7.82317e-07
-1.31687e-08
-6.98478e-09
1.49178e-08
7.6439e-07
-1.26606e-08
-8.87703e-09
1.362e-08
7.27542e-07
-1.16032e-08
-9.20283e-09
1.16884e-08
6.70106e-07
-1.00871e-08
9.20283e-09
5.91223e-07
-8.10094e-09
-8.10094e-09
1.16884e-08
8.87703e-09
6.70106e-07
-1.00871e-08
1.13095e-08
1.13095e-08
7.44464e-07
8.90006e-09
1.31982e-08
7.94817e-07
4.88989e-09
1.44364e-08
8.25977e-07
1.31666e-15
1.50389e-08
8.4089e-07
-4.88988e-09
1.50389e-08
8.4089e-07
-8.90005e-09
1.44364e-08
8.25977e-07
-1.13095e-08
1.31982e-08
7.94817e-07
-1.16884e-08
1.13095e-08
7.44464e-07
8.87703e-09
6.70106e-07
-1.00871e-08
1.362e-08
6.98478e-09
7.27542e-07
-1.16032e-08
1.31982e-08
8.90006e-09
7.94817e-07
1.03723e-08
1.03723e-08
8.38447e-07
5.68684e-09
1.13203e-08
8.64958e-07
1.21817e-15
1.17761e-08
8.77602e-07
-5.68684e-09
1.17761e-08
8.77602e-07
-1.03723e-08
1.13203e-08
8.64958e-07
-1.31982e-08
1.03723e-08
8.38447e-07
-1.362e-08
8.90005e-09
7.94817e-07
6.98478e-09
7.27542e-07
-1.16032e-08
1.49178e-08
3.84417e-09
7.6439e-07
-1.26606e-08
1.44364e-08
4.88989e-09
8.25977e-07
1.13203e-08
5.68684e-09
8.64958e-07
6.1954e-09
6.1954e-09
8.88572e-07
7.50291e-16
6.43799e-09
8.99887e-07
-6.19539e-09
6.43799e-09
8.99887e-07
-1.13203e-08
6.1954e-09
8.88572e-07
-1.44364e-08
5.68684e-09
8.64958e-07
-1.49178e-08
4.88988e-09
8.25977e-07
3.84417e-09
7.6439e-07
-1.26606e-08
1.55524e-08
1.56414e-17
7.82317e-07
-1.31687e-08
1.50389e-08
1.01224e-15
8.4089e-07
1.17761e-08
1.04085e-15
8.77602e-07
6.43799e-09
9.48926e-16
8.99887e-07
6.70925e-16
9.09139e-16
9.10612e-07
-6.43799e-09
1.04296e-15
9.10612e-07
-1.17761e-08
8.43325e-16
8.99887e-07
-1.50389e-08
5.44468e-16
8.77602e-07
-1.55524e-08
-1.05392e-16
8.4089e-07
-6.34401e-17
7.82317e-07
-1.31687e-08
1.55524e-08
-3.84417e-09
7.82317e-07
-1.31687e-08
1.50389e-08
-4.88988e-09
8.4089e-07
1.17761e-08
-5.68684e-09
8.77602e-07
6.43799e-09
-6.19539e-09
8.99887e-07
8.18599e-16
-6.43799e-09
9.10612e-07
-6.43799e-09
-6.43799e-09
9.10612e-07
-1.17761e-08
-6.19539e-09
8.99887e-07
-1.50389e-08
-5.68684e-09
8.77602e-07
-1.55524e-08
-4.88989e-09
8.4089e-07
-3.84417e-09
7.82317e-07
-1.31687e-08
1.49178e-08
-6.98478e-09
7.6439e-07
-1.26606e-08
1.44365e-08
-8.90005e-09
8.25977e-07
1.13203e-08
-1.03723e-08
8.64958e-07
6.1954e-09
-1.13203e-08
8.88572e-07
5.88857e-16
-1.17761e-08
8.99887e-07
-6.19539e-09
-1.17761e-08
8.99887e-07
-1.13203e-08
-1.13203e-08
8.88572e-07
-1.44364e-08
-1.03723e-08
8.64958e-07
-1.49178e-08
-8.90005e-09
8.25977e-07
-6.98478e-09
7.6439e-07
-1.26606e-08
1.362e-08
-8.87703e-09
7.27542e-07
-1.16032e-08
1.31982e-08
-1.13095e-08
7.94817e-07
1.03723e-08
-1.31982e-08
8.38447e-07
5.68684e-09
-1.44364e-08
8.64958e-07
1.19647e-18
-1.50389e-08
8.77602e-07
-5.68684e-09
-1.50389e-08
8.77602e-07
-1.03723e-08
-1.44364e-08
8.64958e-07
-1.31982e-08
-1.31982e-08
8.38447e-07
-1.362e-08
-1.13095e-08
7.94817e-07
-8.87703e-09
7.27542e-07
-1.16032e-08
1.16884e-08
-9.20283e-09
6.70106e-07
-1.00871e-08
1.13095e-08
-1.16884e-08
7.44464e-07
8.90005e-09
-1.362e-08
7.94817e-07
4.88988e-09
-1.49178e-08
8.25977e-07
-7.10276e-16
-1.55524e-08
8.4089e-07
-4.88989e-09
-1.55524e-08
8.4089e-07
-8.90005e-09
-1.49178e-08
8.25977e-07
-1.13095e-08
-1.362e-08
7.94817e-07
-1.16884e-08
-1.16884e-08
7.44464e-07
-9.20283e-09
6.70106e-07
-1.00871e-08
9.20283e-09
5.91223e-07
-8.10094e-09
-8.10094e-09
8.87703e-09
6.70106e-07
-1.00871e-08
6.98478e-09
7.27542e-07
-1.16032e-08
3.84417e-09
7.6439e-07
-1.26606e-08
9.38089e-17
7.82317e-07
-1.31687e-08
-3.84417e-09
7.82317e-07
-1.31687e-08
-6.98478e-09
7.6439e-07
-1.26606e-08
-8.87703e-09
7.27542e-07
-1.16032e-08
-9.20283e-09
6.70106e-07
-1.00871e-08
5.91223e-07
-8.10094e-09
-8.10094e-09
2.99809e-09
2.99809e-09
5.90047e-07
-2.40974e-09
-2.40974e-09
3.0903e-09
4.14898e-09
6.69089e-07
-3.22427e-09
2.541e-09
5.12339e-09
7.26869e-07
-3.90126e-09
1.43496e-09
5.82297e-09
7.64081e-07
-4.40724e-09
4.11843e-16
6.17645e-09
7.82233e-07
-4.65752e-09
-1.43496e-09
6.17645e-09
7.82233e-07
-4.65752e-09
-2.541e-09
5.82297e-09
7.64081e-07
-4.40724e-09
-3.0903e-09
5.12339e-09
7.26869e-07
-3.90126e-09
-2.99809e-09
4.14898e-09
6.69089e-07
-3.22427e-09
2.99809e-09
5.90047e-07
-2.40974e-09
-2.40974e-09
4.14898e-09
3.0903e-09
6.69089e-07
-3.22427e-09
4.31465e-09
4.31465e-09
7.44132e-07
3.55634e-09
5.34651e-09
7.95352e-07
2.00557e-09
6.06679e-09
8.27284e-07
8.1607e-16
6.42892e-09
8.42643e-07
-2.00557e-09
6.42892e-09
8.42643e-07
-3.55634e-09
6.06679e-09
8.27284e-07
-4.31464e-09
5.34651e-09
7.95352e-07
-4.14898e-09
4.31465e-09
7.44132e-07
3.0903e-09
6.69089e-07
-3.22427e-09
5.12339e-09
2.541e-09
7.26869e-07
-3.90126e-09
5.34651e-09
3.55634e-09
7.95352e-07
4.40005e-09
4.40005e-09
8.4034e-07
2.47411e-09
4.9766e-09
8.67974e-07
7.18306e-16
5.2631e-09
8.81242e-07
-2.47411e-09
5.2631e-09
8.81242e-07
-4.40005e-09
4.9766e-09
8.67974e-07
-5.34651e-09
4.40005e-09
8.4034e-07
-5.12339e-09
3.55634e-09
7.95352e-07
2.541e-09
7.26869e-07
-3.90126e-09
5.82297e-09
1.43496e-09
7.64081e-07
-4.40724e-09
6.06679e-09
2.00557e-09
8.27284e-07
4.9766e-09
2.47411e-09
8.67974e-07
2.79058e-09
2.79058e-09
8.92944e-07
5.37594e-16
2.94659e-09
9.04994e-07
-2.79058e-09
2.94659e-09
9.04994e-07
-4.9766e-09
2.79058e-09
8.92944e-07
-6.06679e-09
2.47411e-09
8.67974e-07
-5.82297e-09
2.00557e-09
8.27284e-07
1.43496e-09
7.64081e-07
-4.40724e-09
6.17645e-09
-7.97563e-17
7.82233e-07
-4.65752e-09
6.42892e-09
2.34072e-16
8.42643e-07
5.2631e-09
6.51978e-16
8.81242e-07
2.94659e-09
7.94313e-16
9.04994e-07
6.44802e-16
8.33671e-16
9.16505e-07
-2.94659e-09
9.00253e-16
9.16505e-07
-5.2631e-09
6.65798e-16
9.04994e-07
-6.42892e-09
4.59998e-16
8.81242e-07
-6.17645e-09
1.95889e-16
8.42643e-07
1.69214e-16
7.82233e-07
-4.65752e-09
6.17645e-09
-1.43496e-09
7.82233e-07
-4.65752e-09
6.42892e-09
-2.00557e-09
8.42643e-07
5.2631e-09
-2.47411e-09
8.81242e-07
2.94659e-09
-2.79058e-09
9.04994e-07
6.93745e-16
-2.94659e-09
9.16505e-07
-2.94659e-09
-2.94659e-09
9.16505e-07
-5.2631e-09
-2.79058e-09
9.04994e-07
-6.42892e-09
-2.47411e-09
8.81242e-07
-6.17645e-09
-2.00557e-09
8.42643e-07
-1.43496e-09
7.82233e-07
-4.65752e-09
5.82297e-09
-2.541e-09
7.64081e-07
-4.40724e-09
6.06679e-09
-3.55634e-09
8.27284e-07
4.9766e-09
-4.40005e-09
8.67974e-07
2.79058e-09
-4.9766e-09
8.92944e-07
4.27718e-16
-5.2631e-09
9.04994e-07
-2.79058e-09
-5.2631e-09
9.04994e-07
-4.9766e-09
-4.9766e-09
8.92944e-07
-6.06679e-09
-4.40005e-09
8.67974e-07
-5.82297e-09
-3.55634e-09
8.27284e-07
-2.541e-09
7.64081e-07
-4.40724e-09
5.12339e-09
-3.0903e-09
7.26869e-07
-3.90126e-09
5.34651e-09
-4.31465e-09
7.95352e-07
4.40005e-09
-5.34651e-09
8.4034e-07
2.47411e-09
-6.06679e-09
8.67974e-07
-1.16705e-16
-6.42892e-09
8.81242e-07
-2.47411e-09
-6.42892e-09
8.81242e-07
-4.40005e-09
-6.06679e-09
8.67974e-07
-5.34651e-09
-5.34651e-09
8.4034e-07
-5.12339e-09
-4.31465e-09
7.95352e-07
-3.0903e-09
7.26869e-07
-3.90126e-09
4.14898e-09
-2.99809e-09
6.69089e-07
-3.22427e-09
4.31464e-09
-4.14898e-09
7.44132e-07
3.55634e-09
-5.12339e-09
7.95352e-07
2.00557e-09
-5.82297e-09
8.27284e-07
-5.05466e-16
-6.17645e-09
8.42643e-07
-2.00557e-09
-6.17645e-09
8.42643e-07
-3.55634e-09
-5.82297e-09
8.27284e-07
-4.31465e-09
-5.12339e-09
7.95352e-07
-4.14898e-09
-4.14898e-09
7.44132e-07
-2.99809e-09
6.69089e-07
-3.22427e-09
2.99809e-09
5.90047e-07
-2.40974e-09
-2.40974e-09
3.0903e-09
6.69089e-07
-3.22427e-09
2.541e-09
7.26869e-07
-3.90126e-09
1.43496e-09
7.64081e-07
-4.40724e-09
-4.97824e-17
7.82233e-07
-4.65752e-09
-1.43496e-09
7.82233e-07
-4.65752e-09
-2.541e-09
7.64081e-07
-4.40724e-09
-3.0903e-09
7.26869e-07
-3.90126e-09
-2.99809e-09
6.69089e-07
-3.22427e-09
5.90047e-07
-2.40974e-09
-2.40974e-09
8.22429e-10
8.22429e-10
5.89527e-07
-5.62605e-10
-5.62605e-10
9.32339e-10
1.28056e-09
6.68552e-07
-8.53347e-10
8.12202e-10
1.69533e-09
7.26409e-07
-1.11547e-09
4.7329e-10
2.0083e-09
7.63732e-07
-1.32041e-09
1.7496e-16
2.17018e-09
7.8196e-07
-1.42428e-09
-4.7329e-10
2.17018e-09
7.8196e-07
-1.42428e-09
-8.12202e-10
2.0083e-09
7.63732e-07
-1.32041e-09
-9.32338e-10
1.69533e-09
7.26409e-07
-1.11547e-09
-8.22428e-10
1.28056e-09
6.68552e-07
-8.53346e-10
8.22429e-10
5.89527e-07
-5.62605e-10
-5.62605e-10
1.28056e-09
9.32338e-10
6.68552e-07
-8.53347e-10
1.45528e-09
1.45528e-09
7.43783e-07
1.26335e-09
1.92338e-09
7.95316e-07
7.325e-10
2.26563e-09
8.27557e-07
5.93443e-16
2.44171e-09
8.43104e-07
-7.32498e-10
2.44171e-09
8.43104e-07
-1.26335e-09
2.26563e-09
8.27557e-07
-1.45528e-09
1.92338e-09
7.95316e-07
-1.28056e-09
1.45528e-09
7.43783e-07
9.32339e-10
6.68552e-07
-8.53346e-10
1.69533e-09
8.12202e-10
7.26409e-07
-1.11547e-09
1.92338e-09
1.26335e-09
7.95316e-07
1.66078e-09
1.66078e-09
8.40865e-07
9.5769e-10
1.94465e-09
8.68998e-07
5.2544e-16
2.08895e-09
8.82553e-07
-9.57688e-10
2.08895e-09
8.82553e-07
-1.66077e-09
1.94465e-09
8.68998e-07
-1.92338e-09
1.66078e-09
8.40865e-07
-1.69533e-09
1.26335e-09
7.95316e-07
8.12203e-10
7.26409e-07
-1.11547e-09
2.0083e-09
4.7329e-10
7.63732e-07
-1.32041e-09
2.26564e-09
7.325e-10
8.27557e-07
1.94465e-09
9.57689e-10
8.68998e-07
1.11647e-09
1.11647e-09
8.946e-07
4.31745e-16
1.19655e-09
9.07002e-07
-1.11647e-09
1.19655e-09
9.07002e-07
-1.94464e-09
1.11647e-09
8.946e-07
-2.26563e-09
9.57689e-10
8.68998e-07
-2.0083e-09