/*--------------------------------*- C++ -*----------------------------------*\
| =========                 |                                                 |
| \\      /  F ield         | OpenFOAM: The Open Source CFD Toolbox           |
|  \\    /   O peration     | Version:  2412                                  |
|   \\  /    A nd           | Website:  www.openfoam.com                      |
|    \\/     M anipulation  |                                                 |
\*---------------------------------------------------------------------------*/
FoamFile
{
    version     2.0;
    format      ascii;
    arch        "LSB;label=32;scalar=64";
    class       volVectorField;
    location    "7.5";
    object      U;
}
// * * * * * * * * * * * * * * * * * * * * * * * * * * * * * * * * * * * * * //

dimensions      [0 1 -1 0 0 0 0];

internalField   nonuniform List<vector> 
15000
(
(0.00121397 0.00121397 0.0103981)
(0.00089829 0.00113744 0.0103511)
(0.000613038 0.00111165 0.0103113)
(0.000360241 0.00108588 0.0102851)
(0.000118376 0.001074 0.0102727)
(-0.000118376 0.001074 0.0102727)
(-0.000360241 0.00108588 0.0102851)
(-0.000613038 0.00111165 0.0103113)
(-0.00089829 0.00113744 0.0103511)
(-0.00121397 0.00121397 0.0103981)
(0.00113744 0.00089829 0.0103511)
(0.000847951 0.000847951 0.0102894)
(0.00058108 0.000811395 0.0102486)
(0.000339154 0.000785227 0.010226)
(0.000111313 0.000772479 0.0102163)
(-0.000111313 0.000772479 0.0102163)
(-0.000339154 0.000785227 0.010226)
(-0.00058108 0.000811395 0.0102486)
(-0.000847951 0.000847951 0.0102894)
(-0.00113744 0.00089829 0.0103511)
(0.00111165 0.000613038 0.0103113)
(0.000811395 0.00058108 0.0102486)
(0.000551746 0.000551746 0.0102138)
(0.000320124 0.000530297 0.0101961)
(0.000104822 0.000519458 0.0101886)
(-0.000104822 0.000519458 0.0101886)
(-0.000320124 0.000530297 0.0101961)
(-0.000551746 0.000551746 0.0102138)
(-0.000811395 0.00058108 0.0102486)
(-0.00111165 0.000613038 0.0103113)
(0.00108588 0.000360241 0.0102851)
(0.000785227 0.000339154 0.010226)
(0.000530297 0.000320124 0.0101961)
(0.000306177 0.000306177 0.0101811)
(0.000100038 0.000299048 0.0101745)
(-0.000100038 0.000299048 0.0101745)
(-0.000306177 0.000306177 0.0101811)
(-0.000530297 0.000320124 0.0101961)
(-0.000785227 0.000339154 0.010226)
(-0.00108588 0.000360241 0.0102851)
(0.001074 0.000118376 0.0102727)
(0.000772479 0.000111313 0.0102163)
(0.000519458 0.000104822 0.0101886)
(0.000299048 0.000100038 0.0101745)
(9.75826e-05 9.75826e-05 0.0101682)
(-9.75826e-05 9.75826e-05 0.0101682)
(-0.000299048 0.000100038 0.0101745)
(-0.000519458 0.000104822 0.0101886)
(-0.000772479 0.000111313 0.0102163)
(-0.001074 0.000118376 0.0102727)
(0.001074 -0.000118376 0.0102727)
(0.000772479 -0.000111313 0.0102163)
(0.000519458 -0.000104822 0.0101886)
(0.000299048 -0.000100038 0.0101745)
(9.75826e-05 -9.75826e-05 0.0101682)
(-9.75826e-05 -9.75826e-05 0.0101682)
(-0.000299048 -0.000100038 0.0101745)
(-0.000519458 -0.000104822 0.0101886)
(-0.000772479 -0.000111313 0.0102163)
(-0.001074 -0.000118376 0.0102727)
(0.00108588 -0.000360241 0.0102851)
(0.000785227 -0.000339154 0.010226)
(0.000530297 -0.000320124 0.0101961)
(0.000306177 -0.000306177 0.0101811)
(0.000100038 -0.000299048 0.0101745)
(-0.000100038 -0.000299048 0.0101745)
(-0.000306177 -0.000306177 0.0101811)
(-0.000530297 -0.000320124 0.0101961)
(-0.000785227 -0.000339154 0.010226)
(-0.00108588 -0.000360241 0.0102851)
(0.00111165 -0.000613038 0.0103113)
(0.000811395 -0.00058108 0.0102486)
(0.000551746 -0.000551746 0.0102138)
(0.000320124 -0.000530297 0.0101961)
(0.000104822 -0.000519458 0.0101886)
(-0.000104822 -0.000519458 0.0101886)
(-0.000320124 -0.000530297 0.0101961)
(-0.000551746 -0.000551746 0.0102138)
(-0.000811395 -0.00058108 0.0102486)
(-0.00111165 -0.000613038 0.0103113)
(0.00113744 -0.00089829 0.0103511)
(0.000847951 -0.000847951 0.0102894)
(0.00058108 -0.000811395 0.0102486)
(0.000339154 -0.000785227 0.010226)
(0.000111313 -0.000772479 0.0102163)
(-0.000111313 -0.000772479 0.0102163)
(-0.000339154 -0.000785227 0.010226)
(-0.00058108 -0.000811395 0.0102486)
(-0.000847951 -0.000847951 0.0102894)
(-0.00113744 -0.00089829 0.0103511)
(0.00121397 -0.00121397 0.0103981)
(0.00089829 -0.00113744 0.0103511)
(0.000613038 -0.00111165 0.0103113)
(0.000360241 -0.00108588 0.0102851)
(0.000118376 -0.001074 0.0102727)
(-0.000118376 -0.001074 0.0102727)
(-0.000360241 -0.00108588 0.0102851)
(-0.000613038 -0.00111165 0.0103113)
(-0.00089829 -0.00113744 0.0103511)
(-0.00121397 -0.00121397 0.0103981)
(0.000812618 0.000812617 0.0126694)
(0.0006445 0.000861202 0.0126477)
(0.000459807 0.000889938 0.0125608)
(0.000275297 0.00090135 0.0124747)
(9.11942e-05 0.000906406 0.0124253)
(-9.11942e-05 0.000906406 0.0124253)
(-0.000275297 0.00090135 0.0124747)
(-0.000459807 0.000889938 0.0125608)
(-0.0006445 0.000861202 0.0126477)
(-0.000812617 0.000812617 0.0126694)
(0.000861202 0.0006445 0.0126477)
(0.000669905 0.000669905 0.0124942)
(0.000470364 0.00067741 0.0123146)
(0.000277659 0.000676276 0.0121767)
(9.15567e-05 0.000674824 0.0121047)
(-9.15567e-05 0.000674824 0.0121047)
(-0.000277659 0.000676276 0.0121767)
(-0.000470364 0.00067741 0.0123146)
(-0.000669905 0.000669905 0.0124942)
(-0.000861202 0.0006445 0.0126477)
(0.000889938 0.000459807 0.0125608)
(0.00067741 0.000470364 0.0123146)
(0.000469036 0.000469036 0.0120847)
(0.000274289 0.000464219 0.0119231)
(9.01248e-05 0.000461146 0.0118416)
(-9.01248e-05 0.000461146 0.0118416)
(-0.000274289 0.000464219 0.0119231)
(-0.000469036 0.000469036 0.0120847)
(-0.00067741 0.000470364 0.0123146)
(-0.000889938 0.000459807 0.0125608)
(0.00090135 0.000275297 0.0124747)
(0.000676276 0.000277659 0.0121767)
(0.000464219 0.000274289 0.0119231)
(0.000270106 0.000270106 0.0117518)
(8.85771e-05 0.00026768 0.011667)
(-8.85771e-05 0.00026768 0.011667)
(-0.000270106 0.000270106 0.0117518)
(-0.000464219 0.000274289 0.0119231)
(-0.000676276 0.000277659 0.0121767)
(-0.00090135 0.000275297 0.0124747)
(0.000906406 9.11942e-05 0.0124253)
(0.000674824 9.15567e-05 0.0121047)
(0.000461146 9.01248e-05 0.0118416)
(0.00026768 8.85771e-05 0.011667)
(8.77019e-05 8.77019e-05 0.0115812)
(-8.77019e-05 8.77019e-05 0.0115812)
(-0.00026768 8.85771e-05 0.011667)
(-0.000461146 9.01248e-05 0.0118416)
(-0.000674824 9.15567e-05 0.0121047)
(-0.000906406 9.11942e-05 0.0124253)
(0.000906406 -9.11942e-05 0.0124253)
(0.000674824 -9.15567e-05 0.0121047)
(0.000461146 -9.01248e-05 0.0118416)
(0.00026768 -8.85771e-05 0.011667)
(8.77019e-05 -8.77019e-05 0.0115812)
(-8.77019e-05 -8.77019e-05 0.0115812)
(-0.00026768 -8.85771e-05 0.011667)
(-0.000461146 -9.01248e-05 0.0118416)
(-0.000674824 -9.15567e-05 0.0121047)
(-0.000906406 -9.11942e-05 0.0124253)
(0.00090135 -0.000275297 0.0124747)
(0.000676276 -0.000277659 0.0121767)
(0.000464219 -0.000274289 0.0119231)
(0.000270106 -0.000270106 0.0117518)
(8.85771e-05 -0.00026768 0.011667)
(-8.85771e-05 -0.00026768 0.011667)
(-0.000270106 -0.000270106 0.0117518)
(-0.000464219 -0.000274289 0.0119231)
(-0.000676276 -0.000277659 0.0121767)
(-0.00090135 -0.000275297 0.0124747)
(0.000889938 -0.000459807 0.0125608)
(0.00067741 -0.000470364 0.0123146)
(0.000469036 -0.000469036 0.0120847)
(0.000274289 -0.000464219 0.0119231)
(9.01248e-05 -0.000461146 0.0118416)
(-9.01248e-05 -0.000461146 0.0118416)
(-0.000274289 -0.000464219 0.0119231)
(-0.000469036 -0.000469036 0.0120847)
(-0.00067741 -0.000470364 0.0123146)
(-0.000889938 -0.000459807 0.0125608)
(0.000861202 -0.0006445 0.0126477)
(0.000669905 -0.000669905 0.0124942)
(0.000470364 -0.00067741 0.0123146)
(0.000277659 -0.000676276 0.0121767)
(9.15567e-05 -0.000674824 0.0121047)
(-9.15567e-05 -0.000674824 0.0121047)
(-0.000277659 -0.000676276 0.0121767)
(-0.000470364 -0.00067741 0.0123146)
(-0.000669905 -0.000669905 0.0124942)
(-0.000861202 -0.0006445 0.0126477)
(0.000812618 -0.000812617 0.0126694)
(0.0006445 -0.000861202 0.0126477)
(0.000459807 -0.000889938 0.0125608)
(0.000275297 -0.00090135 0.0124747)
(9.11942e-05 -0.000906406 0.0124253)
(-9.11942e-05 -0.000906406 0.0124253)
(-0.000275297 -0.00090135 0.0124747)
(-0.000459807 -0.000889938 0.0125608)
(-0.0006445 -0.000861202 0.0126477)
(-0.000812617 -0.000812617 0.0126694)
(0.000604957 0.000604957 0.0125239)
(0.000506877 0.000683423 0.0128144)
(0.00038211 0.000736413 0.01292)
(0.000236373 0.000767319 0.0129388)
(7.96401e-05 0.000781944 0.0129343)
(-7.96401e-05 0.000781944 0.0129343)
(-0.000236373 0.000767319 0.0129388)
(-0.00038211 0.000736413 0.01292)
(-0.000506877 0.000683423 0.0128144)
(-0.000604957 0.000604957 0.0125239)
(0.000683423 0.000506877 0.0128144)
(0.00056955 0.00056955 0.0129381)
(0.000421981 0.000606597 0.0128989)
(0.000258177 0.000625804 0.0128248)
(8.66701e-05 0.000634221 0.0127764)
(-8.66701e-05 0.000634221 0.0127764)
(-0.000258177 0.000625804 0.0128248)
(-0.000421981 0.000606597 0.0128989)
(-0.00056955 0.00056955 0.0129381)
(-0.000683423 0.000506877 0.0128144)
(0.000736413 0.00038211 0.01292)
(0.000606597 0.000421981 0.0128989)
(0.000444554 0.000444554 0.0127608)
(0.000269946 0.000455604 0.0126314)
(9.03708e-05 0.0004602 0.0125593)
(-9.03708e-05 0.0004602 0.0125593)
(-0.000269946 0.000455604 0.0126314)
(-0.000444554 0.000444554 0.0127608)
(-0.000606597 0.000421981 0.0128989)
(-0.000736413 0.00038211 0.01292)
(0.000767319 0.000236373 0.0129388)
(0.000625804 0.000258177 0.0128248)
(0.000455604 0.000269946 0.0126314)
(0.000275572 0.000275572 0.0124751)
(9.21209e-05 0.000277852 0.0123926)
(-9.21209e-05 0.000277852 0.0123926)
(-0.000275572 0.000275572 0.0124751)
(-0.000455604 0.000269946 0.0126314)
(-0.000625804 0.000258177 0.0128248)
(-0.000767319 0.000236373 0.0129388)
(0.000781944 7.96401e-05 0.0129343)
(0.000634221 8.66701e-05 0.0127764)
(0.0004602 9.03708e-05 0.0125593)
(0.000277852 9.21209e-05 0.0123926)
(9.28219e-05 9.28219e-05 0.0123067)
(-9.28219e-05 9.28219e-05 0.0123067)
(-0.000277852 9.21209e-05 0.0123926)
(-0.0004602 9.03708e-05 0.0125593)
(-0.000634221 8.66701e-05 0.0127764)
(-0.000781944 7.96401e-05 0.0129343)
(0.000781944 -7.96401e-05 0.0129343)
(0.000634221 -8.66701e-05 0.0127764)
(0.0004602 -9.03708e-05 0.0125593)
(0.000277852 -9.21209e-05 0.0123926)
(9.28219e-05 -9.28219e-05 0.0123067)
(-9.28219e-05 -9.28219e-05 0.0123067)
(-0.000277852 -9.21209e-05 0.0123926)
(-0.0004602 -9.03708e-05 0.0125593)
(-0.000634221 -8.66701e-05 0.0127764)
(-0.000781944 -7.96401e-05 0.0129343)
(0.000767319 -0.000236373 0.0129388)
(0.000625804 -0.000258177 0.0128248)
(0.000455604 -0.000269946 0.0126314)
(0.000275572 -0.000275572 0.0124751)
(9.21209e-05 -0.000277852 0.0123926)
(-9.21209e-05 -0.000277852 0.0123926)
(-0.000275572 -0.000275572 0.0124751)
(-0.000455604 -0.000269946 0.0126314)
(-0.000625804 -0.000258177 0.0128248)
(-0.000767319 -0.000236373 0.0129388)
(0.000736413 -0.00038211 0.01292)
(0.000606597 -0.000421981 0.0128989)
(0.000444554 -0.000444554 0.0127608)
(0.000269946 -0.000455604 0.0126314)
(9.03708e-05 -0.0004602 0.0125593)
(-9.03708e-05 -0.0004602 0.0125593)
(-0.000269946 -0.000455604 0.0126314)
(-0.000444554 -0.000444554 0.0127608)
(-0.000606597 -0.000421981 0.0128989)
(-0.000736413 -0.00038211 0.01292)
(0.000683423 -0.000506877 0.0128144)
(0.00056955 -0.00056955 0.0129381)
(0.000421981 -0.000606597 0.0128989)
(0.000258177 -0.000625804 0.0128248)
(8.66701e-05 -0.000634221 0.0127764)
(-8.66701e-05 -0.000634221 0.0127764)
(-0.000258177 -0.000625804 0.0128248)
(-0.000421981 -0.000606597 0.0128989)
(-0.00056955 -0.00056955 0.0129381)
(-0.000683423 -0.000506877 0.0128144)
(0.000604957 -0.000604957 0.0125239)
(0.000506877 -0.000683423 0.0128144)
(0.00038211 -0.000736413 0.01292)
(0.000236373 -0.000767319 0.0129388)
(7.96401e-05 -0.000781944 0.0129343)
(-7.96401e-05 -0.000781944 0.0129343)
(-0.000236373 -0.000767319 0.0129388)
(-0.00038211 -0.000736413 0.01292)
(-0.000506877 -0.000683423 0.0128144)
(-0.000604957 -0.000604957 0.0125239)
(0.000289154 0.000289154 0.0127484)
(0.000253324 0.000352454 0.013195)
(0.000200799 0.000398412 0.0134131)
(0.000127714 0.000428934 0.0135008)
(4.36646e-05 0.000443839 0.0135283)
(-4.36646e-05 0.000443839 0.0135283)
(-0.000127714 0.000428934 0.0135008)
(-0.000200799 0.000398412 0.0134131)
(-0.000253324 0.000352454 0.013195)
(-0.000289153 0.000289153 0.0127484)
(0.000352454 0.000253324 0.013195)
(0.000310971 0.000310971 0.0134921)
(0.00024179 0.000351373 0.0135595)
(0.00015261 0.000376529 0.0135441)
(5.20344e-05 0.000388619 0.0135212)
(-5.20344e-05 0.000388619 0.0135212)
(-0.00015261 0.000376529 0.0135441)
(-0.00024179 0.000351373 0.0135595)
(-0.000310971 0.000310971 0.0134921)
(-0.000352454 0.000253324 0.013195)
(0.000398412 0.000200799 0.0134131)
(0.000351373 0.00024179 0.0135595)
(0.000271169 0.000271169 0.0135133)
(0.000170325 0.000289378 0.0134299)
(5.79793e-05 0.000298091 0.0133768)
(-5.79793e-05 0.000298091 0.0133768)
(-0.000170325 0.000289378 0.0134299)
(-0.000271169 0.000271169 0.0135133)
(-0.000351373 0.00024179 0.0135595)
(-0.000398412 0.000200799 0.0134131)
(0.000428934 0.000127714 0.0135008)
(0.000376529 0.00015261 0.0135441)
(0.000289378 0.000170325 0.0134299)
(0.000181332 0.000181332 0.013311)
(6.16758e-05 0.000186589 0.0132434)
(-6.16758e-05 0.000186589 0.0132434)
(-0.000181332 0.000181332 0.013311)
(-0.000289378 0.000170325 0.0134299)
(-0.000376529 0.00015261 0.0135441)
(-0.000428934 0.000127714 0.0135008)
(0.000443839 4.36646e-05 0.0135283)
(0.000388619 5.20344e-05 0.0135212)
(0.000298091 5.79793e-05 0.0133768)
(0.000186589 6.16758e-05 0.0132434)
(6.34387e-05 6.34387e-05 0.0131705)
(-6.34387e-05 6.34387e-05 0.0131705)
(-0.000186589 6.16758e-05 0.0132434)
(-0.000298091 5.79793e-05 0.0133768)
(-0.000388619 5.20344e-05 0.0135212)
(-0.000443839 4.36646e-05 0.0135283)
(0.000443839 -4.36646e-05 0.0135283)
(0.000388619 -5.20344e-05 0.0135212)
(0.000298091 -5.79793e-05 0.0133768)
(0.000186589 -6.16758e-05 0.0132434)
(6.34387e-05 -6.34387e-05 0.0131705)
(-6.34387e-05 -6.34387e-05 0.0131705)
(-0.000186589 -6.16758e-05 0.0132434)
(-0.000298091 -5.79793e-05 0.0133768)
(-0.000388619 -5.20344e-05 0.0135212)
(-0.000443839 -4.36646e-05 0.0135283)
(0.000428934 -0.000127714 0.0135008)
(0.000376529 -0.00015261 0.0135441)
(0.000289378 -0.000170325 0.0134299)
(0.000181332 -0.000181332 0.013311)
(6.16758e-05 -0.000186589 0.0132434)
(-6.16758e-05 -0.000186589 0.0132434)
(-0.000181332 -0.000181332 0.013311)
(-0.000289378 -0.000170325 0.0134299)
(-0.000376529 -0.00015261 0.0135441)
(-0.000428934 -0.000127714 0.0135008)
(0.000398412 -0.000200799 0.0134131)
(0.000351373 -0.00024179 0.0135595)
(0.000271169 -0.000271169 0.0135133)
(0.000170325 -0.000289378 0.0134299)
(5.79793e-05 -0.000298091 0.0133768)
(-5.79793e-05 -0.000298091 0.0133768)
(-0.000170325 -0.000289378 0.0134299)
(-0.000271169 -0.000271169 0.0135133)
(-0.000351373 -0.00024179 0.0135595)
(-0.000398412 -0.000200799 0.0134131)
(0.000352454 -0.000253324 0.013195)
(0.000310971 -0.000310971 0.0134921)
(0.00024179 -0.000351373 0.0135595)
(0.00015261 -0.000376529 0.0135441)
(5.20344e-05 -0.000388619 0.0135212)
(-5.20344e-05 -0.000388619 0.0135212)
(-0.00015261 -0.000376529 0.0135441)
(-0.00024179 -0.000351373 0.0135595)
(-0.000310971 -0.000310971 0.0134921)
(-0.000352454 -0.000253324 0.013195)
(0.000289154 -0.000289154 0.0127484)
(0.000253324 -0.000352454 0.013195)
(0.000200799 -0.000398412 0.0134131)
(0.000127714 -0.000428934 0.0135008)
(4.36646e-05 -0.000443839 0.0135283)
(-4.36646e-05 -0.000443839 0.0135283)
(-0.000127714 -0.000428934 0.0135008)
(-0.000200799 -0.000398412 0.0134131)
(-0.000253324 -0.000352454 0.013195)
(-0.000289154 -0.000289154 0.0127484)
(0.000139526 0.000139526 0.0126608)
(0.000125389 0.000174687 0.013202)
(0.000102986 0.000202634 0.0134973)
(6.68322e-05 0.000222343 0.0136379)
(2.30937e-05 0.000232203 0.0136919)
(-2.30936e-05 0.000232203 0.0136919)
(-6.68322e-05 0.000222343 0.0136379)
(-0.000102986 0.000202634 0.0134973)
(-0.000125389 0.000174687 0.013202)
(-0.000139526 0.000139526 0.0126608)
(0.000174687 0.000125389 0.013202)
(0.00016141 0.00016141 0.0136221)
(0.000130445 0.000188923 0.0137804)
(8.43321e-05 0.00020732 0.013824)
(2.90959e-05 0.000216476 0.01383)
(-2.90959e-05 0.000216476 0.01383)
(-8.43321e-05 0.00020732 0.013824)
(-0.000130445 0.000188923 0.0137804)
(-0.00016141 0.00016141 0.0136221)
(-0.000174687 0.000125389 0.013202)
(0.000202634 0.000102986 0.0134973)
(0.000188923 0.000130445 0.0137804)
(0.000152012 0.000152012 0.0138305)
(9.80002e-05 0.000166349 0.0138078)
(3.37788e-05 0.000173456 0.0137838)
(-3.37788e-05 0.000173456 0.0137838)
(-9.80002e-05 0.000166349 0.0138078)
(-0.000152012 0.000152012 0.0138305)
(-0.000188923 0.000130445 0.0137804)
(-0.000202634 0.000102986 0.0134973)
(0.000222343 6.68322e-05 0.0136379)
(0.00020732 8.43321e-05 0.013824)
(0.000166349 9.80002e-05 0.0138078)
(0.000107046 0.000107046 0.0137494)
(3.68706e-05 0.000111509 0.0137107)
(-3.68706e-05 0.000111509 0.0137107)
(-0.000107046 0.000107046 0.0137494)
(-0.000166349 9.80002e-05 0.0138078)
(-0.00020732 8.43321e-05 0.013824)
(-0.000222343 6.68322e-05 0.0136379)
(0.000232203 2.30937e-05 0.0136919)
(0.000216476 2.90959e-05 0.01383)
(0.000173456 3.37788e-05 0.0137838)
(0.000111509 3.68706e-05 0.0137107)
(3.83909e-05 3.83909e-05 0.0136665)
(-3.83909e-05 3.83909e-05 0.0136665)
(-0.000111509 3.68706e-05 0.0137107)
(-0.000173456 3.37788e-05 0.0137838)
(-0.000216476 2.90959e-05 0.01383)
(-0.000232203 2.30936e-05 0.0136919)
(0.000232203 -2.30936e-05 0.0136919)
(0.000216476 -2.90959e-05 0.01383)
(0.000173456 -3.37788e-05 0.0137838)
(0.000111509 -3.68706e-05 0.0137107)
(3.83909e-05 -3.83909e-05 0.0136665)
(-3.83909e-05 -3.83909e-05 0.0136665)
(-0.000111509 -3.68706e-05 0.0137107)
(-0.000173456 -3.37788e-05 0.0137838)
(-0.000216476 -2.90959e-05 0.01383)
(-0.000232203 -2.30937e-05 0.0136919)
(0.000222343 -6.68322e-05 0.0136379)
(0.00020732 -8.43321e-05 0.013824)
(0.000166349 -9.80002e-05 0.0138078)
(0.000107046 -0.000107046 0.0137494)
(3.68706e-05 -0.000111509 0.0137107)
(-3.68706e-05 -0.000111509 0.0137107)
(-0.000107046 -0.000107046 0.0137494)
(-0.000166349 -9.80002e-05 0.0138078)
(-0.00020732 -8.43321e-05 0.013824)
(-0.000222343 -6.68322e-05 0.0136379)
(0.000202634 -0.000102986 0.0134973)
(0.000188923 -0.000130445 0.0137804)
(0.000152012 -0.000152012 0.0138305)
(9.80002e-05 -0.000166349 0.0138078)
(3.37788e-05 -0.000173456 0.0137838)
(-3.37788e-05 -0.000173456 0.0137838)
(-9.80002e-05 -0.000166349 0.0138078)
(-0.000152012 -0.000152012 0.0138305)
(-0.000188923 -0.000130445 0.0137804)
(-0.000202634 -0.000102986 0.0134973)
(0.000174687 -0.000125389 0.013202)
(0.00016141 -0.00016141 0.0136221)
(0.000130445 -0.000188923 0.0137804)
(8.43321e-05 -0.00020732 0.013824)
(2.90959e-05 -0.000216476 0.01383)
(-2.90959e-05 -0.000216476 0.01383)
(-8.43321e-05 -0.00020732 0.013824)
(-0.000130445 -0.000188923 0.0137804)
(-0.00016141 -0.00016141 0.0136221)
(-0.000174687 -0.000125389 0.013202)
(0.000139526 -0.000139526 0.0126608)
(0.000125389 -0.000174687 0.013202)
(0.000102986 -0.000202634 0.0134973)
(6.68322e-05 -0.000222343 0.0136379)
(2.30937e-05 -0.000232203 0.0136919)
(-2.30937e-05 -0.000232203 0.0136919)
(-6.68322e-05 -0.000222343 0.0136379)
(-0.000102986 -0.000202634 0.0134973)
(-0.000125389 -0.000174687 0.013202)
(-0.000139526 -0.000139527 0.0126608)
(5.36129e-05 5.36129e-05 0.0125964)
(5.08212e-05 7.15172e-05 0.0131684)
(4.41127e-05 8.67513e-05 0.0134945)
(2.95016e-05 9.81039e-05 0.013659)
(1.0355e-05 0.000103922 0.0137258)
(-1.0355e-05 0.000103922 0.0137258)
(-2.95016e-05 9.81039e-05 0.013659)
(-4.41127e-05 8.67513e-05 0.0134945)
(-5.08212e-05 7.15172e-05 0.0131684)
(-5.36129e-05 5.36129e-05 0.0125964)
(7.15172e-05 5.08212e-05 0.0131684)
(7.08645e-05 7.08645e-05 0.0136415)
(6.04496e-05 8.74224e-05 0.0138463)
(4.0365e-05 9.91802e-05 0.0139238)
(1.41458e-05 0.000105208 0.0139473)
(-1.41458e-05 0.000105208 0.0139473)
(-4.0365e-05 9.91802e-05 0.0139238)
(-6.04496e-05 8.74224e-05 0.0138463)
(-7.08645e-05 7.08645e-05 0.0136415)
(-7.15172e-05 5.08212e-05 0.0131684)
(8.67513e-05 4.41127e-05 0.0134945)
(8.74223e-05 6.04496e-05 0.0138463)
(7.43e-05 7.43e-05 0.0139539)
(4.94914e-05 8.40172e-05 0.0139715)
(1.73228e-05 8.89693e-05 0.013968)
(-1.73228e-05 8.89693e-05 0.013968)
(-4.94913e-05 8.40172e-05 0.0139715)
(-7.43e-05 7.43e-05 0.0139539)
(-8.74224e-05 6.04496e-05 0.0138463)
(-8.67513e-05 4.41127e-05 0.0134945)
(9.81039e-05 2.95016e-05 0.013659)
(9.91802e-05 4.0365e-05 0.0139238)
(8.40172e-05 4.94914e-05 0.0139715)
(5.58303e-05 5.58303e-05 0.0139568)
(1.95192e-05 5.90376e-05 0.0139401)
(-1.95192e-05 5.90376e-05 0.0139401)
(-5.58302e-05 5.58303e-05 0.0139568)
(-8.40172e-05 4.94914e-05 0.0139715)
(-9.91802e-05 4.0365e-05 0.0139238)
(-9.81039e-05 2.95016e-05 0.013659)
(0.000103922 1.0355e-05 0.0137258)
(0.000105208 1.41458e-05 0.0139473)
(8.89693e-05 1.73228e-05 0.013968)
(5.90376e-05 1.95192e-05 0.0139401)
(2.06261e-05 2.06261e-05 0.0139185)
(-2.06261e-05 2.06261e-05 0.0139185)
(-5.90376e-05 1.95192e-05 0.0139401)
(-8.89693e-05 1.73228e-05 0.013968)
(-0.000105208 1.41458e-05 0.0139473)
(-0.000103922 1.0355e-05 0.0137258)
(0.000103922 -1.0355e-05 0.0137258)
(0.000105208 -1.41458e-05 0.0139473)
(8.89693e-05 -1.73228e-05 0.013968)
(5.90376e-05 -1.95192e-05 0.0139401)
(2.06261e-05 -2.06261e-05 0.0139185)
(-2.06261e-05 -2.06261e-05 0.0139185)
(-5.90376e-05 -1.95192e-05 0.0139401)
(-8.89693e-05 -1.73228e-05 0.013968)
(-0.000105208 -1.41458e-05 0.0139473)
(-0.000103922 -1.0355e-05 0.0137258)
(9.81039e-05 -2.95016e-05 0.013659)
(9.91802e-05 -4.0365e-05 0.0139238)
(8.40172e-05 -4.94914e-05 0.0139715)
(5.58303e-05 -5.58302e-05 0.0139568)
(1.95192e-05 -5.90376e-05 0.0139401)
(-1.95192e-05 -5.90376e-05 0.0139401)
(-5.58303e-05 -5.58302e-05 0.0139568)
(-8.40172e-05 -4.94914e-05 0.0139715)
(-9.91802e-05 -4.0365e-05 0.0139238)
(-9.81038e-05 -2.95016e-05 0.013659)
(8.67513e-05 -4.41127e-05 0.0134945)
(8.74224e-05 -6.04496e-05 0.0138463)
(7.43e-05 -7.43e-05 0.0139539)
(4.94914e-05 -8.40172e-05 0.0139715)
(1.73228e-05 -8.89693e-05 0.013968)
(-1.73228e-05 -8.89693e-05 0.013968)
(-4.94914e-05 -8.40172e-05 0.0139715)
(-7.43e-05 -7.43e-05 0.0139539)
(-8.74223e-05 -6.04496e-05 0.0138463)
(-8.67513e-05 -4.41126e-05 0.0134945)
(7.15172e-05 -5.08212e-05 0.0131684)
(7.08645e-05 -7.08645e-05 0.0136415)
(6.04496e-05 -8.74224e-05 0.0138463)
(4.0365e-05 -9.91802e-05 0.0139238)
(1.41458e-05 -0.000105208 0.0139473)
(-1.41458e-05 -0.000105208 0.0139473)
(-4.0365e-05 -9.91802e-05 0.0139238)
(-6.04496e-05 -8.74224e-05 0.0138463)
(-7.08645e-05 -7.08645e-05 0.0136415)
(-7.15172e-05 -5.08212e-05 0.0131684)
(5.36129e-05 -5.36129e-05 0.0125964)
(5.08212e-05 -7.15172e-05 0.0131684)
(4.41127e-05 -8.67513e-05 0.0134945)
(2.95016e-05 -9.81039e-05 0.013659)
(1.0355e-05 -0.000103922 0.0137258)
(-1.0355e-05 -0.000103922 0.0137258)
(-2.95016e-05 -9.81038e-05 0.013659)
(-4.41126e-05 -8.67513e-05 0.0134945)
(-5.08212e-05 -7.15172e-05 0.0131684)
(-5.36129e-05 -5.3613e-05 0.0125964)
(1.69193e-05 1.69193e-05 0.0125624)
(1.71259e-05 2.43619e-05 0.0131434)
(1.58597e-05 3.11754e-05 0.0134813)
(1.09582e-05 3.65465e-05 0.0136561)
(3.91759e-06 3.93649e-05 0.0137288)
(-3.91759e-06 3.93649e-05 0.0137288)
(-1.09582e-05 3.65465e-05 0.0136561)
(-1.58597e-05 3.11754e-05 0.0134813)
(-1.71259e-05 2.43619e-05 0.0131434)
(-1.69193e-05 1.69193e-05 0.0125624)
(2.43619e-05 1.71259e-05 0.0131434)
(2.62812e-05 2.62812e-05 0.0136376)
(2.38485e-05 3.44583e-05 0.0138644)
(1.64883e-05 4.06038e-05 0.0139594)
(5.87758e-06 4.38396e-05 0.0139926)
(-5.87757e-06 4.38396e-05 0.0139926)
(-1.64883e-05 4.06038e-05 0.0139594)
(-2.38485e-05 3.44583e-05 0.0138644)
(-2.62812e-05 2.62812e-05 0.0136376)
(-2.43619e-05 1.71259e-05 0.0131434)
(3.11754e-05 1.58597e-05 0.0134813)
(3.44583e-05 2.38485e-05 0.0138644)
(3.11266e-05 3.11266e-05 0.0140024)
(2.14618e-05 3.64961e-05 0.0140431)
(7.63401e-06 3.93005e-05 0.0140518)
(-7.634e-06 3.93005e-05 0.0140518)
(-2.14618e-05 3.64961e-05 0.0140431)
(-3.11266e-05 3.11266e-05 0.0140024)
(-3.44583e-05 2.38485e-05 0.0138644)
(-3.11754e-05 1.58597e-05 0.0134813)
(3.65465e-05 1.09581e-05 0.0136561)
(4.06038e-05 1.64883e-05 0.0139594)
(3.64961e-05 2.14618e-05 0.0140431)
(2.50787e-05 2.50787e-05 0.0140547)
(8.90364e-06 2.69517e-05 0.0140516)
(-8.90363e-06 2.69517e-05 0.0140516)
(-2.50786e-05 2.50786e-05 0.0140547)
(-3.64961e-05 2.14618e-05 0.0140431)
(-4.06038e-05 1.64883e-05 0.0139594)
(-3.65465e-05 1.09582e-05 0.0136561)
(3.93649e-05 3.91759e-06 0.0137288)
(4.38396e-05 5.87758e-06 0.0139926)
(3.93005e-05 7.63401e-06 0.0140518)
(2.69517e-05 8.90364e-06 0.0140516)
(9.55836e-06 9.55836e-06 0.0140441)
(-9.55835e-06 9.55836e-06 0.0140441)
(-2.69516e-05 8.90364e-06 0.0140516)
(-3.93005e-05 7.63401e-06 0.0140518)
(-4.38396e-05 5.87758e-06 0.0139926)
(-3.93649e-05 3.91759e-06 0.0137288)
(3.93649e-05 -3.91759e-06 0.0137288)
(4.38396e-05 -5.87758e-06 0.0139926)
(3.93005e-05 -7.63401e-06 0.0140518)
(2.69517e-05 -8.90363e-06 0.0140516)
(9.55836e-06 -9.55835e-06 0.0140441)
(-9.55835e-06 -9.55835e-06 0.0140441)
(-2.69516e-05 -8.90363e-06 0.0140516)
(-3.93005e-05 -7.63401e-06 0.0140518)
(-4.38396e-05 -5.87758e-06 0.0139926)
(-3.93649e-05 -3.91759e-06 0.0137288)
(3.65465e-05 -1.09582e-05 0.0136561)
(4.06038e-05 -1.64883e-05 0.0139594)
(3.64961e-05 -2.14618e-05 0.0140431)
(2.50787e-05 -2.50786e-05 0.0140547)
(8.90364e-06 -2.69516e-05 0.0140516)
(-8.90363e-06 -2.69516e-05 0.0140516)
(-2.50786e-05 -2.50786e-05 0.0140547)
(-3.64961e-05 -2.14618e-05 0.0140431)
(-4.06038e-05 -1.64883e-05 0.0139594)
(-3.65465e-05 -1.09581e-05 0.0136561)
(3.11754e-05 -1.58597e-05 0.0134813)
(3.44583e-05 -2.38485e-05 0.0138644)
(3.11266e-05 -3.11266e-05 0.0140024)
(2.14618e-05 -3.64961e-05 0.0140431)
(7.63401e-06 -3.93005e-05 0.0140518)
(-7.63401e-06 -3.93005e-05 0.0140518)
(-2.14618e-05 -3.64961e-05 0.0140431)
(-3.11266e-05 -3.11266e-05 0.0140024)
(-3.44583e-05 -2.38484e-05 0.0138644)
(-3.11754e-05 -1.58597e-05 0.0134813)
(2.43619e-05 -1.71258e-05 0.0131434)
(2.62812e-05 -2.62812e-05 0.0136376)
(2.38485e-05 -3.44583e-05 0.0138644)
(1.64883e-05 -4.06038e-05 0.0139594)
(5.87758e-06 -4.38396e-05 0.0139926)
(-5.87758e-06 -4.38396e-05 0.0139926)
(-1.64883e-05 -4.06038e-05 0.0139594)
(-2.38484e-05 -3.44583e-05 0.0138644)
(-2.62812e-05 -2.62812e-05 0.0136376)
(-2.43619e-05 -1.71258e-05 0.0131434)
(1.69193e-05 -1.69193e-05 0.0125624)
(1.71259e-05 -2.43619e-05 0.0131434)
(1.58597e-05 -3.11754e-05 0.0134813)
(1.09582e-05 -3.65465e-05 0.0136561)
(3.91759e-06 -3.93649e-05 0.0137288)
(-3.91759e-06 -3.93649e-05 0.0137288)
(-1.09581e-05 -3.65465e-05 0.0136561)
(-1.58597e-05 -3.11754e-05 0.0134813)
(-1.71258e-05 -2.43619e-05 0.0131434)
(-1.69193e-05 -1.69194e-05 0.0125624)
(4.41229e-06 4.4123e-06 0.012546)
(4.9399e-06 7.09688e-06 0.0131285)
(4.99807e-06 9.7205e-06 0.0134698)
(3.59613e-06 1.1902e-05 0.0136482)
(1.31594e-06 1.30699e-05 0.0137232)
(-1.31594e-06 1.30699e-05 0.0137232)
(-3.59613e-06 1.1902e-05 0.0136482)
(-4.99807e-06 9.72051e-06 0.0134698)
(-4.9399e-06 7.09687e-06 0.0131285)
(-4.4123e-06 4.41229e-06 0.012546)
(7.09688e-06 4.9399e-06 0.0131285)
(8.56361e-06 8.56361e-06 0.0136295)
(8.35121e-06 1.20197e-05 0.013865)
(5.99496e-06 1.47415e-05 0.0139679)
(2.1769e-06 1.62058e-05 0.0140055)
(-2.17689e-06 1.62058e-05 0.0140055)
(-5.99496e-06 1.47415e-05 0.0139679)
(-8.35122e-06 1.20197e-05 0.013865)
(-8.56362e-06 8.56361e-06 0.0136295)
(-7.09687e-06 4.9399e-06 0.0131285)
(9.72051e-06 4.99807e-06 0.0134698)
(1.20197e-05 8.35121e-06 0.013865)
(1.15933e-05 1.15933e-05 0.0140168)
(8.27773e-06 1.40872e-05 0.0140687)
(2.99254e-06 1.54156e-05 0.0140836)
(-2.99254e-06 1.54156e-05 0.0140836)
(-8.27773e-06 1.40872e-05 0.0140687)
(-1.15933e-05 1.15933e-05 0.0140168)
(-1.20197e-05 8.35122e-06 0.013865)
(-9.7205e-06 4.99807e-06 0.0134698)
(1.1902e-05 3.59613e-06 0.0136482)
(1.47415e-05 5.99496e-06 0.0139679)
(1.40872e-05 8.27773e-06 0.0140687)
(1.00043e-05 1.00043e-05 0.0140937)
(3.60531e-06 1.09156e-05 0.0140978)
(-3.6053e-06 1.09156e-05 0.0140978)
(-1.00043e-05 1.00043e-05 0.0140937)
(-1.40872e-05 8.27773e-06 0.0140687)
(-1.47415e-05 5.99496e-06 0.0139679)
(-1.1902e-05 3.59613e-06 0.0136482)
(1.30699e-05 1.31594e-06 0.0137232)
(1.62058e-05 2.17689e-06 0.0140055)
(1.54156e-05 2.99255e-06 0.0140836)
(1.09156e-05 3.60531e-06 0.0140978)
(3.92737e-06 3.92737e-06 0.014098)
(-3.92736e-06 3.92737e-06 0.014098)
(-1.09156e-05 3.60531e-06 0.0140978)
(-1.54156e-05 2.99254e-06 0.0140836)
(-1.62057e-05 2.17689e-06 0.0140055)
(-1.30699e-05 1.31594e-06 0.0137232)
(1.30699e-05 -1.31594e-06 0.0137232)
(1.62058e-05 -2.17689e-06 0.0140055)
(1.54156e-05 -2.99254e-06 0.0140836)
(1.09156e-05 -3.6053e-06 0.0140978)
(3.92737e-06 -3.92736e-06 0.014098)
(-3.92736e-06 -3.92736e-06 0.014098)
(-1.09156e-05 -3.6053e-06 0.0140978)
(-1.54156e-05 -2.99254e-06 0.0140836)
(-1.62057e-05 -2.17689e-06 0.0140055)
(-1.30699e-05 -1.31594e-06 0.0137232)
(1.1902e-05 -3.59613e-06 0.0136482)
(1.47415e-05 -5.99496e-06 0.0139679)
(1.40872e-05 -8.27773e-06 0.0140687)
(1.00043e-05 -1.00043e-05 0.0140937)
(3.60531e-06 -1.09156e-05 0.0140978)
(-3.6053e-06 -1.09156e-05 0.0140978)
(-1.00043e-05 -1.00043e-05 0.0140937)
(-1.40872e-05 -8.27772e-06 0.0140687)
(-1.47415e-05 -5.99495e-06 0.0139679)
(-1.1902e-05 -3.59613e-06 0.0136482)
(9.7205e-06 -4.99807e-06 0.0134698)
(1.20197e-05 -8.35122e-06 0.013865)
(1.15933e-05 -1.15933e-05 0.0140168)
(8.27773e-06 -1.40872e-05 0.0140687)
(2.99254e-06 -1.54156e-05 0.0140836)
(-2.99254e-06 -1.54156e-05 0.0140836)
(-8.27772e-06 -1.40872e-05 0.0140687)
(-1.15933e-05 -1.15933e-05 0.0140168)
(-1.20197e-05 -8.3512e-06 0.013865)
(-9.72051e-06 -4.99806e-06 0.0134698)
(7.09687e-06 -4.9399e-06 0.0131285)
(8.56361e-06 -8.56361e-06 0.0136295)
(8.35122e-06 -1.20197e-05 0.013865)
(5.99496e-06 -1.47415e-05 0.0139679)
(2.17689e-06 -1.62057e-05 0.0140055)
(-2.17689e-06 -1.62057e-05 0.0140055)
(-5.99495e-06 -1.47415e-05 0.0139679)
(-8.3512e-06 -1.20197e-05 0.013865)
(-8.5636e-06 -8.56361e-06 0.0136295)
(-7.09688e-06 -4.9399e-06 0.0131285)
(4.41229e-06 -4.4123e-06 0.012546)
(4.9399e-06 -7.09687e-06 0.0131285)
(4.99807e-06 -9.7205e-06 0.0134698)
(3.59613e-06 -1.1902e-05 0.0136482)
(1.31594e-06 -1.30699e-05 0.0137232)
(-1.31594e-06 -1.30699e-05 0.0137232)