/*--------------------------------*- C++ -*----------------------------------*\
| =========                 |                                                 |
| \\      /  F ield         | OpenFOAM: The Open Source CFD Toolbox           |
|  \\    /   O peration     | Version:  2412                                  |
|   \\  /    A nd           | Website:  www.openfoam.com                      |
|    \\/     M anipulation  |                                                 |
\*---------------------------------------------------------------------------*/
FoamFile
{
    version     2.0;
    format      ascii;
    arch        "LSB;label=32;scalar=64";
    class       surfaceScalarField;
    location    "1.1";
    object      phi;
}
// * * * * * * * * * * * * * * * * * * * * * * * * * * * * * * * * * * * * * //

dimensions      [0 3 -1 0 0 0 0];

oriented        oriented;

internalField   nonuniform List<scalar> 
43700
(
3.50554e-05
3.50554e-05
5.67904e-05
-3.99497e-05
-3.99497e-05
2.79896e-05
3.49061e-05
6.361e-05
-4.0512e-05
1.93664e-05
3.43001e-05
6.84081e-05
-4.01419e-05
9.87197e-06
3.37124e-05
7.14682e-05
-3.97149e-05
4.53666e-14
3.33716e-05
7.29485e-05
-3.94552e-05
-9.87197e-06
3.33716e-05
7.29485e-05
-3.94552e-05
-1.93664e-05
3.37124e-05
7.14682e-05
-3.97149e-05
-2.79896e-05
3.43001e-05
6.84081e-05
-4.01419e-05
-3.50554e-05
3.49061e-05
6.361e-05
-4.0512e-05
3.50554e-05
5.67904e-05
-3.99497e-05
-3.99497e-05
3.49061e-05
2.79896e-05
6.361e-05
-4.0512e-05
2.72463e-05
2.72463e-05
6.99039e-05
1.8527e-05
2.64289e-05
7.39595e-05
9.3411e-06
2.57681e-05
7.63798e-05
4.53555e-14
2.54048e-05
7.75051e-05
-9.3411e-06
2.54048e-05
7.75051e-05
-1.8527e-05
2.57681e-05
7.63798e-05
-2.72463e-05
2.64289e-05
7.39595e-05
-3.49061e-05
2.72463e-05
6.99039e-05
2.79896e-05
6.361e-05
-4.0512e-05
3.43001e-05
1.93664e-05
6.84081e-05
-4.01419e-05
2.64289e-05
1.8527e-05
7.39595e-05
1.77621e-05
1.77621e-05
7.7321e-05
8.88608e-06
1.71912e-05
7.92091e-05
4.52249e-13
1.68879e-05
8.00508e-05
-8.88607e-06
1.68879e-05
8.00508e-05
-1.77621e-05
1.71912e-05
7.92091e-05
-2.64289e-05
1.77621e-05
7.7321e-05
-3.43001e-05
1.8527e-05
7.39595e-05
1.93664e-05
6.84081e-05
-4.01419e-05
3.37123e-05
9.87197e-06
7.14682e-05
-3.97149e-05
2.57681e-05
9.3411e-06
7.63798e-05
1.71912e-05
8.88607e-06
7.92091e-05
8.55752e-06
8.55751e-06
8.07177e-05
7.22325e-13
8.38583e-06
8.13638e-05
-8.55751e-06
8.38583e-06
8.13638e-05
-1.71912e-05
8.55751e-06
8.07177e-05
-2.57681e-05
8.88607e-06
7.92091e-05
-3.37124e-05
9.3411e-06
7.63798e-05
9.87197e-06
7.14682e-05
-3.97149e-05
3.33716e-05
7.38369e-14
7.29485e-05
-3.94552e-05
2.54048e-05
2.34758e-13
7.75051e-05
1.68879e-05
4.76026e-13
8.00508e-05
8.38583e-06
5.59804e-13
8.13638e-05
5.27514e-13
3.39951e-13
8.19109e-05
-8.38583e-06
-5.1133e-14
8.19109e-05
-1.68879e-05
-3.14502e-13
8.13638e-05
-2.54048e-05
-2.69575e-13
8.00508e-05
-3.33716e-05
3.24932e-14
7.75051e-05
5.16117e-13
7.29485e-05
-3.94552e-05
3.33716e-05
-9.87197e-06
7.29485e-05
-3.94552e-05
2.54048e-05
-9.3411e-06
7.75051e-05
1.68879e-05
-8.88607e-06
8.00508e-05
8.38583e-06
-8.55751e-06
8.13638e-05
1.28569e-13
-8.38583e-06
8.19109e-05
-8.38583e-06
-8.38583e-06
8.19109e-05
-1.68879e-05
-8.55751e-06
8.13638e-05
-2.54048e-05
-8.88607e-06
8.00508e-05
-3.33716e-05
-9.3411e-06
7.75051e-05
-9.87197e-06
7.29485e-05
-3.94552e-05
3.37124e-05
-1.93664e-05
7.14682e-05
-3.97149e-05
2.57681e-05
-1.8527e-05
7.63798e-05
1.71912e-05
-1.77621e-05
7.92091e-05
8.55751e-06
-1.71912e-05
8.07177e-05
-4.99361e-14
-1.68879e-05
8.13638e-05
-8.55751e-06
-1.68879e-05
8.13638e-05
-1.71912e-05
-1.71912e-05
8.07177e-05
-2.57681e-05
-1.77621e-05
7.92091e-05
-3.37123e-05
-1.8527e-05
7.63798e-05
-1.93664e-05
7.14682e-05
-3.97149e-05
3.43001e-05
-2.79896e-05
6.84081e-05
-4.01419e-05
2.64289e-05
-2.72463e-05
7.39595e-05
1.77621e-05
-2.64289e-05
7.7321e-05
8.88607e-06
-2.57681e-05
7.92091e-05
8.32546e-14
-2.54048e-05
8.00508e-05
-8.88607e-06
-2.54048e-05
8.00508e-05
-1.77621e-05
-2.57681e-05
7.92091e-05
-2.64289e-05
-2.64289e-05
7.7321e-05
-3.43001e-05
-2.72463e-05
7.39595e-05
-2.79896e-05
6.84081e-05
-4.01419e-05
3.49061e-05
-3.50554e-05
6.361e-05
-4.0512e-05
2.72463e-05
-3.49061e-05
6.99039e-05
1.8527e-05
-3.43001e-05
7.39595e-05
9.3411e-06
-3.37124e-05
7.63798e-05
2.62682e-13
-3.33716e-05
7.75051e-05
-9.3411e-06
-3.33716e-05
7.75051e-05
-1.8527e-05
-3.37124e-05
7.63798e-05
-2.72463e-05
-3.43001e-05
7.39595e-05
-3.49061e-05
-3.49061e-05
6.99039e-05
-3.50554e-05
6.361e-05
-4.0512e-05
3.50554e-05
5.67904e-05
-3.99497e-05
-3.99497e-05
2.79896e-05
6.361e-05
-4.0512e-05
1.93664e-05
6.84081e-05
-4.01419e-05
9.87197e-06
7.14682e-05
-3.97149e-05
2.67274e-13
7.29485e-05
-3.94552e-05
-9.87197e-06
7.29485e-05
-3.94552e-05
-1.93664e-05
7.14682e-05
-3.97149e-05
-2.79896e-05
6.84081e-05
-4.01419e-05
-3.50554e-05
6.361e-05
-4.0512e-05
5.67904e-05
-3.99497e-05
-3.99497e-05
1.98762e-05
1.98762e-05
5.71029e-05
-2.00325e-05
-2.00325e-05
1.73632e-05
2.21649e-05
6.61817e-05
-2.22236e-05
1.27974e-05
2.37475e-05
7.30466e-05
-2.38201e-05
6.77529e-06
2.47451e-05
7.76043e-05
-2.48591e-05
2.85139e-13
2.52218e-05
7.98656e-05
-2.53637e-05
-6.77529e-06
2.52218e-05
7.98656e-05
-2.53637e-05
-1.27974e-05
2.47451e-05
7.76043e-05
-2.48591e-05
-1.73632e-05
2.37475e-05
7.30466e-05
-2.38201e-05
-1.98762e-05
2.21649e-05
6.61817e-05
-2.22236e-05
1.98762e-05
5.71029e-05
-2.00325e-05
-2.00325e-05
2.21649e-05
1.73632e-05
6.61817e-05
-2.22236e-05
1.92434e-05
1.92434e-05
7.57469e-05
1.40667e-05
2.05089e-05
8.23748e-05
7.40169e-06
2.12803e-05
8.65096e-05
7.53967e-13
2.16425e-05
8.84861e-05
-7.40169e-06
2.16425e-05
8.84861e-05
-1.40667e-05
2.12803e-05
8.65096e-05
-1.92434e-05
2.05089e-05
8.23748e-05
-2.21649e-05
1.92434e-05
7.57469e-05
1.73632e-05
6.61817e-05
-2.22236e-05
2.37475e-05
1.27974e-05
7.30466e-05
-2.38201e-05
2.05089e-05
1.40667e-05
8.23748e-05
1.49074e-05
1.49074e-05
8.85238e-05
7.81118e-06
1.54058e-05
9.21799e-05
1.05415e-12
1.56361e-05
9.38685e-05
-7.81118e-06
1.56361e-05
9.38685e-05
-1.49074e-05
1.54058e-05
9.21799e-05
-2.05089e-05
1.49074e-05
8.85238e-05
-2.37475e-05
1.40668e-05
8.23748e-05
1.27974e-05
7.30466e-05
-2.38201e-05
2.47451e-05
6.77529e-06
7.76043e-05
-2.48591e-05
2.12803e-05
7.40169e-06
8.65096e-05
1.54058e-05
7.81118e-06
9.21799e-05
8.04889e-06
8.04889e-06
9.54316e-05
7.42253e-13
8.15735e-06
9.68914e-05
-8.04889e-06
8.15735e-06
9.68914e-05
-1.54058e-05
8.04889e-06
9.54316e-05
-2.12803e-05
7.81118e-06
9.21799e-05
-2.47451e-05
7.40169e-06
8.65096e-05
6.77529e-06
7.76043e-05
-2.48591e-05
2.52218e-05
1.61588e-13
7.98656e-05
-2.53637e-05
2.16425e-05
1.16458e-13
8.84861e-05
1.56361e-05
4.58543e-13
9.38685e-05
8.15735e-06
9.75383e-13
9.68914e-05
9.07514e-14
1.18931e-12
9.82256e-05
-8.15735e-06
8.9371e-13
9.82256e-05
-1.56361e-05
3.0017e-13
9.68914e-05
-2.16425e-05
-2.18689e-13
9.38685e-05
-2.52218e-05
-4.8608e-13
8.84861e-05
-4.85935e-13
7.98656e-05
-2.53637e-05
2.52218e-05
-6.77529e-06
7.98656e-05
-2.53637e-05
2.16425e-05
-7.40169e-06
8.84861e-05
1.56361e-05
-7.81118e-06
9.38685e-05
8.15735e-06
-8.04889e-06
9.68914e-05
-2.04218e-13
-8.15735e-06
9.82256e-05
-8.15735e-06
-8.15735e-06
9.82256e-05
-1.56361e-05
-8.04889e-06
9.68914e-05
-2.16425e-05
-7.81118e-06
9.38685e-05
-2.52218e-05
-7.40169e-06
8.84861e-05
-6.77529e-06
7.98656e-05
-2.53637e-05
2.47451e-05
-1.27974e-05
7.76043e-05
-2.48591e-05
2.12803e-05
-1.40667e-05
8.65096e-05
1.54058e-05
-1.49074e-05
9.21799e-05
8.04889e-06
-1.54058e-05
9.54316e-05
4.28875e-14
-1.56361e-05
9.68914e-05
-8.04889e-06
-1.56361e-05
9.68914e-05
-1.54058e-05
-1.54058e-05
9.54316e-05
-2.12803e-05
-1.49074e-05
9.21799e-05
-2.47451e-05
-1.40667e-05
8.65096e-05
-1.27974e-05
7.76043e-05
-2.48591e-05
2.37475e-05
-1.73632e-05
7.30466e-05
-2.38201e-05
2.05089e-05
-1.92434e-05
8.23748e-05
1.49074e-05
-2.05089e-05
8.85238e-05
7.81118e-06
-2.12803e-05
9.21799e-05
4.6072e-13
-2.16425e-05
9.38685e-05
-7.81118e-06
-2.16425e-05
9.38685e-05
-1.49074e-05
-2.12803e-05
9.21799e-05
-2.05089e-05
-2.05089e-05
8.85238e-05
-2.37475e-05
-1.92434e-05
8.23748e-05
-1.73632e-05
7.30466e-05
-2.38201e-05
2.21649e-05
-1.98762e-05
6.61817e-05
-2.22236e-05
1.92434e-05
-2.21649e-05
7.57469e-05
1.40667e-05
-2.37475e-05
8.23748e-05
7.40169e-06
-2.47451e-05
8.65096e-05
6.23324e-13
-2.52218e-05
8.84861e-05
-7.40169e-06
-2.52218e-05
8.84861e-05
-1.40667e-05
-2.47451e-05
8.65096e-05
-1.92434e-05
-2.37475e-05
8.23748e-05
-2.21649e-05
-2.21649e-05
7.57469e-05
-1.98762e-05
6.61817e-05
-2.22236e-05
1.98762e-05
5.71029e-05
-2.00325e-05
-2.00325e-05
1.73632e-05
6.61817e-05
-2.22236e-05
1.27974e-05
7.30466e-05
-2.38201e-05
6.77529e-06
7.76043e-05
-2.48591e-05
5.32616e-13
7.98656e-05
-2.53637e-05
-6.77529e-06
7.98656e-05
-2.53637e-05
-1.27974e-05
7.76043e-05
-2.48591e-05
-1.73632e-05
7.30466e-05
-2.38201e-05
-1.98762e-05
6.61817e-05
-2.22236e-05
5.71029e-05
-2.00325e-05
-2.00325e-05
1.18522e-05
1.18522e-05
5.51369e-05
-1.08692e-05
-1.08692e-05
1.09851e-05
1.39502e-05
6.57001e-05
-1.26014e-05
8.42716e-06
1.54856e-05
7.40336e-05
-1.39146e-05
4.56587e-06
1.65224e-05
7.97609e-05
-1.48177e-05
6.16795e-13
1.70437e-05
8.26632e-05
-1.52754e-05
-4.56587e-06
1.70437e-05
8.26632e-05
-1.52754e-05
-8.42716e-06
1.65224e-05
7.97609e-05
-1.48177e-05
-1.09851e-05
1.54856e-05
7.40336e-05
-1.39146e-05
-1.18522e-05
1.39502e-05
6.57001e-05
-1.26014e-05
1.18522e-05
5.51369e-05
-1.08692e-05
-1.08692e-05
1.39502e-05
1.09851e-05
6.57001e-05
-1.26014e-05
1.29802e-05
1.29802e-05
7.76868e-05
9.93513e-06
1.44213e-05
8.64842e-05
5.36756e-06
1.53679e-05
9.22317e-05
1.39068e-12
1.58368e-05
9.50605e-05
-5.36756e-06
1.58368e-05
9.50605e-05
-9.93513e-06
1.53679e-05
9.22317e-05
-1.29802e-05
1.44213e-05
8.64842e-05
-1.39502e-05
1.29802e-05
7.76868e-05
1.09851e-05
6.57001e-05
-1.26014e-05
1.54856e-05
8.42716e-06
7.40336e-05
-1.39146e-05
1.44213e-05
9.93513e-06
8.64842e-05
1.10262e-05
1.10262e-05
9.53139e-05
5.9491e-06
1.17311e-05
0.000100894
6.07267e-13
1.20766e-05
0.000103578
-5.9491e-06
1.20766e-05
0.000103578
-1.10262e-05
1.17311e-05
0.000100894
-1.44213e-05
1.10262e-05
9.53139e-05
-1.54856e-05
9.93513e-06
8.64842e-05
8.42716e-06
7.40336e-05
-1.39146e-05
1.65224e-05
4.56587e-06
7.97609e-05
-1.48177e-05
1.53679e-05
5.36756e-06
9.22317e-05
1.17311e-05
5.9491e-06
0.000100894
6.32131e-06
6.32131e-06
0.000106251
-5.99548e-13
6.50261e-06
0.000108787
-6.32131e-06
6.50261e-06
0.000108787
-1.17311e-05
6.32131e-06
0.000106251
-1.53679e-05
5.9491e-06
0.000100894
-1.65224e-05
5.36756e-06
9.22317e-05
4.56587e-06
7.97609e-05
-1.48177e-05
1.70437e-05
4.26712e-13
8.26632e-05
-1.52754e-05
1.58368e-05
-1.12731e-13
9.50605e-05
1.20766e-05
-3.81398e-13
0.000103578
6.50261e-06
2.02015e-13
0.000108787
-9.27139e-13
1.34489e-12
0.000111231
-6.50261e-06
2.11965e-12
0.000111231
-1.20766e-05
1.96942e-12
0.000108787
-1.58368e-05
1.07075e-12
0.000103578
-1.70437e-05
-1.41174e-14
9.50605e-05
-8.46266e-13
8.26632e-05
-1.52754e-05
1.70437e-05
-4.56587e-06
8.26632e-05
-1.52754e-05
1.58368e-05
-5.36756e-06
9.50605e-05
1.20766e-05
-5.9491e-06
0.000103578
6.50261e-06
-6.32131e-06
0.000108787
-1.45639e-13
-6.50261e-06
0.000111231
-6.50261e-06
-6.50261e-06
0.000111231
-1.20766e-05
-6.32131e-06
0.000108787
-1.58368e-05
-5.9491e-06
0.000103578
-1.70437e-05
-5.36756e-06
9.50605e-05
-4.56587e-06
8.26632e-05
-1.52754e-05
1.65224e-05
-8.42716e-06
7.97609e-05
-1.48177e-05
1.53679e-05
-9.93513e-06
9.22317e-05
1.17311e-05
-1.10262e-05
0.000100894
6.32131e-06
-1.17311e-05
0.000106251
8.88707e-13
-1.20766e-05
0.000108787
-6.32131e-06
-1.20766e-05
0.000108787
-1.17311e-05
-1.17311e-05
0.000106251
-1.53679e-05
-1.10262e-05
0.000100894
-1.65224e-05
-9.93513e-06
9.22317e-05
-8.42716e-06
7.97609e-05
-1.48177e-05
1.54856e-05
-1.09851e-05
7.40336e-05
-1.39146e-05
1.44213e-05
-1.29802e-05
8.64842e-05
1.10262e-05
-1.44213e-05
9.53139e-05
5.9491e-06
-1.53679e-05
0.000100894
1.19713e-12
-1.58368e-05
0.000103578
-5.9491e-06
-1.58368e-05
0.000103578
-1.10262e-05
-1.53679e-05
0.000100894
-1.44213e-05
-1.44213e-05
9.53139e-05
-1.54856e-05
-1.29802e-05
8.64842e-05
-1.09851e-05
7.40336e-05
-1.39146e-05
1.39502e-05
-1.18522e-05
6.57001e-05
-1.26014e-05
1.29802e-05
-1.39502e-05
7.76868e-05
9.93513e-06
-1.54856e-05
8.64842e-05
5.36756e-06
-1.65224e-05
9.22317e-05
8.19184e-13
-1.70437e-05
9.50605e-05
-5.36756e-06
-1.70437e-05
9.50605e-05
-9.93513e-06
-1.65224e-05
9.22317e-05
-1.29802e-05
-1.54856e-05
8.64842e-05
-1.39502e-05
-1.39502e-05
7.76868e-05
-1.18522e-05
6.57001e-05
-1.26014e-05
1.18522e-05
5.51369e-05
-1.08692e-05
-1.08692e-05
1.09851e-05
6.57001e-05
-1.26014e-05
8.42716e-06
7.40336e-05
-1.39146e-05
4.56587e-06
7.97609e-05
-1.48177e-05
4.18509e-13
8.26632e-05
-1.52754e-05
-4.56587e-06
8.26632e-05
-1.52754e-05
-8.42716e-06
7.97609e-05
-1.48177e-05
-1.09851e-05
7.40336e-05
-1.39146e-05
-1.18522e-05
6.57001e-05
-1.26014e-05
5.51369e-05
-1.08692e-05
-1.08692e-05
5.85838e-06
5.85838e-06
5.3741e-05
-5.16041e-06
-5.16041e-06
5.63822e-06
7.24205e-06
6.48777e-05
-6.19951e-06
4.44885e-06
8.34769e-06
7.39322e-05
-7.05695e-06
2.4527e-06
9.13427e-06
8.02948e-05
-7.67206e-06
8.81379e-13
9.54161e-06
8.35654e-05
-7.9911e-06
-2.45269e-06
9.54161e-06
8.35654e-05
-7.9911e-06
-4.44884e-06
9.13427e-06
8.02948e-05
-7.67206e-06
-5.63822e-06
8.3477e-06
7.39322e-05
-7.05695e-06
-5.85838e-06
7.24205e-06
6.48777e-05
-6.19952e-06
5.85838e-06
5.3741e-05
-5.16041e-06
-5.16041e-06
7.24205e-06
5.63822e-06
6.48777e-05
-6.19951e-06
7.05557e-06
7.05557e-06
7.80598e-05
5.5828e-06
8.17671e-06
8.81279e-05
3.0774e-06
8.95779e-06
9.49136e-05
6.87249e-13
9.35826e-06
9.83213e-05
-3.0774e-06
9.35826e-06
9.83213e-05
-5.5828e-06
8.95779e-06
9.49136e-05
-7.05557e-06
8.17671e-06
8.81279e-05
-7.24205e-06
7.05557e-06
7.80598e-05
5.63822e-06
6.48777e-05
-6.19952e-06
8.34769e-06
4.44885e-06
7.39322e-05
-7.05695e-06
8.17671e-06
5.5828e-06
8.81279e-05
6.48255e-06
6.48255e-06
9.87023e-05
3.5746e-06
7.10176e-06
0.000105658
-1.04009e-12
7.41692e-06
0.000109094
-3.5746e-06
7.41692e-06
0.000109094
-6.48254e-06
7.10176e-06
0.000105658
-8.17671e-06
6.48254e-06
9.87023e-05
-8.34769e-06
5.5828e-06
8.81279e-05
4.44884e-06
7.39322e-05
-7.05695e-06
9.13427e-06
2.4527e-06
8.02948e-05
-7.67206e-06
8.95779e-06
3.0774e-06
9.49136e-05
7.10176e-06
3.5746e-06
0.000105658
3.91464e-06
3.91464e-06
0.000112625
-2.0447e-12
4.08698e-06
0.000116031
-3.91464e-06
4.08698e-06
0.000116031
-7.10176e-06
3.91464e-06
0.000112625
-8.95779e-06
3.5746e-06
0.000105658
-9.13427e-06
3.0774e-06
9.49136e-05
2.45269e-06
8.02948e-05
-7.67206e-06
9.54161e-06
8.6996e-13
8.35654e-05
-7.9911e-06
9.35826e-06
3.55483e-13
9.83213e-05
7.41692e-06
-1.05503e-12
0.000109094
4.08698e-06
-1.49292e-12
0.000116031
-9.82325e-13
-1.08563e-13
0.000119405
-4.08698e-06
2.02648e-12
0.000119405
-7.41692e-06
3.14586e-12
0.000116031
-9.35826e-06
2.621e-12
0.000109094
-9.54161e-06
1.35552e-12
9.83213e-05
4.30892e-13
8.35654e-05
-7.9911e-06
9.54161e-06
-2.45269e-06
8.35654e-05
-7.9911e-06
9.35826e-06
-3.0774e-06
9.83213e-05
7.41692e-06
-3.5746e-06
0.000109094
4.08698e-06
-3.91464e-06
0.000116031
1.16546e-12
-4.08698e-06
0.000119405
-4.08698e-06
-4.08698e-06
0.000119405
-7.41692e-06
-3.91464e-06
0.000116031
-9.35826e-06
-3.5746e-06
0.000109094
-9.54161e-06
-3.0774e-06
9.83213e-05
-2.45269e-06
8.35654e-05
-7.9911e-06
9.13427e-06
-4.44884e-06
8.02948e-05
-7.67206e-06
8.95779e-06
-5.5828e-06
9.49136e-05
7.10176e-06
-6.48254e-06
0.000105658
3.91464e-06
-7.10176e-06
0.000112625
2.40566e-12
-7.41692e-06
0.000116031
-3.91464e-06
-7.41692e-06
0.000116031
-7.10176e-06
-7.10176e-06
0.000112625
-8.95779e-06
-6.48255e-06
0.000105658
-9.13427e-06
-5.5828e-06
9.49136e-05
-4.44884e-06
8.02948e-05
-7.67206e-06
8.34769e-06
-5.63822e-06
7.39322e-05
-7.05695e-06
8.17671e-06
-7.05557e-06
8.81279e-05
6.48255e-06
-8.17671e-06
9.87023e-05
3.5746e-06
-8.95779e-06
0.000105658
1.86171e-12
-9.35826e-06
0.000109094
-3.5746e-06
-9.35826e-06
0.000109094
-6.48255e-06
-8.95779e-06
0.000105658
-8.17671e-06
-8.17671e-06
9.87023e-05
-8.34769e-06
-7.05557e-06
8.81279e-05
-5.63822e-06
7.39322e-05
-7.05695e-06
7.24205e-06
-5.85838e-06
6.48777e-05
-6.19952e-06
7.05557e-06
-7.24205e-06
7.80598e-05
5.5828e-06
-8.34769e-06
8.81279e-05
3.0774e-06
-9.13427e-06
9.49136e-05
5.528e-13
-9.54161e-06
9.83213e-05
-3.0774e-06
-9.54161e-06
9.83213e-05
-5.5828e-06
-9.13427e-06
9.49136e-05
-7.05557e-06
-8.34769e-06
8.81279e-05
-7.24205e-06
-7.24205e-06
7.80598e-05
-5.85838e-06
6.48777e-05
-6.19951e-06
5.85838e-06
5.3741e-05
-5.16041e-06
-5.16041e-06
5.63822e-06
6.48777e-05
-6.19951e-06
4.44885e-06
7.39322e-05
-7.05695e-06
2.4527e-06
8.02948e-05
-7.67206e-06
-1.88784e-13
8.35654e-05
-7.9911e-06
-2.4527e-06
8.35654e-05
-7.9911e-06
-4.44884e-06
8.02948e-05
-7.67206e-06
-5.63822e-06
7.39322e-05
-7.05695e-06
-5.85838e-06
6.48777e-05
-6.19951e-06
5.3741e-05
-5.16041e-06
-5.16041e-06
3.13766e-06
3.13766e-06
5.28085e-05
-2.6714e-06
-2.6714e-06
3.08996e-06
3.94009e-06
6.42305e-05
-3.24517e-06
2.47979e-06
4.60195e-06
7.36666e-05
-3.72623e-06
1.3813e-06
5.08601e-06
8.03851e-05
-4.07785e-06
5.46382e-13
5.34119e-06
8.38681e-05
-4.26264e-06
-1.3813e-06
5.34119e-06
8.38681e-05
-4.26264e-06
-2.47978e-06
5.086e-06
8.03851e-05
-4.07785e-06
-3.08995e-06
4.60195e-06
7.36666e-05
-3.72623e-06
-3.13766e-06
3.94009e-06
6.42305e-05
-3.24517e-06
3.13766e-06
5.28085e-05
-2.6714e-06
-2.6714e-06
3.94009e-06
3.08996e-06
6.42305e-05
-3.24517e-06
3.94927e-06
3.94927e-06
7.80414e-05
3.19025e-06
4.65769e-06
8.88312e-05
1.78082e-06
5.16767e-06
9.62414e-05
-1.1849e-12
5.43451e-06
0.000100009
-1.78082e-06
5.43451e-06
0.000100009
-3.19025e-06
5.16767e-06
9.62414e-05
-3.94927e-06
4.65769e-06
8.88312e-05
-3.94009e-06
3.94927e-06
7.80414e-05
3.08995e-06
6.42305e-05
-3.24517e-06
4.60195e-06
2.47979e-06
7.36666e-05
-3.72623e-06
4.65769e-06
3.19025e-06
8.88312e-05
3.78144e-06
3.78144e-06
0.000100455
2.11545e-06
4.20347e-06
0.000108288
-2.11574e-12
4.4231e-06
0.000112221
-2.11545e-06
4.4231e-06
0.000112221
-3.78144e-06
4.20347e-06
0.000108288
-4.65769e-06
3.78144e-06
0.000100455
-4.60195e-06
3.19025e-06
8.88312e-05
2.47978e-06
7.36666e-05
-3.72623e-06
5.08601e-06
1.3813e-06
8.03851e-05
-4.07785e-06
5.16767e-06
1.78082e-06
9.62414e-05
4.20347e-06
2.11545e-06
0.000108288
2.35339e-06
2.35338e-06
0.000116326
-1.30469e-12
2.47684e-06
0.000120331
-2.35339e-06
2.47684e-06
0.000120331
-4.20347e-06
2.35339e-06
0.000116326
-5.16767e-06
2.11545e-06
0.000108288
-5.08601e-06
1.78082e-06
9.62414e-05
1.3813e-06
8.03851e-05
-4.07785e-06
5.34119e-06
1.01267e-12
8.38681e-05
-4.26264e-06
5.43451e-06
1.64682e-12
0.000100009
4.4231e-06
-8.26264e-14
0.000112221
2.47684e-06
-2.08856e-12
0.000120331
1.06611e-12
-2.13183e-12
0.000124358
-2.47684e-06
-1.92994e-13
0.000124358
-4.4231e-06
1.9273e-12
0.000120331
-5.43451e-06
2.66138e-12
0.000112221
-5.34119e-06
2.36939e-12
0.000100009
2.11219e-12
8.38681e-05
-4.26265e-06
5.34119e-06
-1.3813e-06
8.38681e-05
-4.26265e-06
5.43451e-06
-1.78081e-06
0.000100009
4.4231e-06
-2.11545e-06
0.000112221
2.47684e-06
-2.35338e-06
0.000120331
3.03549e-12
-2.47684e-06
0.000124358
-2.47684e-06
-2.47684e-06
0.000124358
-4.4231e-06
-2.35338e-06
0.000120331
-5.43451e-06
-2.11545e-06
0.000112221
-5.34119e-06
-1.78082e-06
0.000100009
-1.3813e-06
8.38681e-05
-4.26265e-06
5.08601e-06
-2.47979e-06
8.03851e-05
-4.07785e-06
5.16767e-06
-3.19025e-06
9.62414e-05
4.20347e-06
-3.78144e-06
0.000108288
2.35339e-06
-4.20346e-06
0.000116326
2.98413e-12
-4.4231e-06
0.000120331
-2.35338e-06
-4.4231e-06
0.000120331
-4.20347e-06
-4.20347e-06
0.000116326
-5.16767e-06
-3.78144e-06
0.000108288
-5.08601e-06
-3.19025e-06
9.62414e-05
-2.47979e-06
8.03851e-05
-4.07785e-06
4.60195e-06
-3.08996e-06
7.36666e-05
-3.72623e-06
4.65769e-06
-3.94927e-06
8.88312e-05
3.78144e-06
-4.65769e-06
0.000100455
2.11545e-06
-5.16767e-06
0.000108288
1.22593e-12
-5.43451e-06
0.000112221
-2.11545e-06
-5.43451e-06
0.000112221
-3.78144e-06
-5.16767e-06
0.000108288
-4.65769e-06
-4.65769e-06
0.000100455
-4.60195e-06
-3.94927e-06
8.88312e-05
-3.08996e-06
7.36666e-05
-3.72623e-06
3.9401e-06
-3.13766e-06
6.42305e-05
-3.24517e-06
3.94927e-06
-3.9401e-06
7.80414e-05
3.19025e-06
-4.60195e-06
8.88312e-05
1.78082e-06
-5.08601e-06
9.62414e-05
-4.06954e-13
-5.34119e-06
0.000100009
-1.78082e-06
-5.34119e-06
0.000100009
-3.19025e-06
-5.08601e-06
9.62414e-05
-3.94927e-06
-4.60195e-06
8.88312e-05
-3.94009e-06
-3.94009e-06
7.80414e-05
-3.13766e-06
6.42305e-05
-3.24517e-06
3.13766e-06
5.28085e-05
-2.6714e-06
-2.6714e-06
3.08996e-06
6.42305e-05
-3.24517e-06
2.47979e-06
7.36666e-05
-3.72623e-06
1.3813e-06
8.03851e-05
-4.07785e-06
-6.86757e-13
8.38681e-05
-4.26265e-06
-1.3813e-06
8.38681e-05
-4.26264e-06
-2.47978e-06
8.03851e-05
-4.07785e-06
-3.08995e-06
7.36666e-05
-3.72623e-06
-3.13766e-06
6.42305e-05
-3.24517e-06
5.28085e-05
-2.6714e-06
-2.6714e-06
1.64166e-06
1.64166e-06
5.2289e-05
-1.38191e-06
-1.38191e-06
1.63975e-06
2.09453e-06
6.38333e-05
-1.69546e-06
1.33154e-06
2.4802e-06
7.34599e-05
-1.9652e-06
7.47438e-07
2.76794e-06
8.03662e-05
-2.16496e-06
-5.0103e-13
2.92141e-06
8.39649e-05
-2.2707e-06
-7.47438e-07
2.92141e-06
8.39649e-05
-2.2707e-06
-1.33154e-06
2.76794e-06
8.03662e-05
-2.16495e-06
-1.63974e-06
2.4802e-06
7.34599e-05
-1.9652e-06
-1.64166e-06
2.09452e-06
6.38333e-05
-1.69546e-06
1.64165e-06
5.2289e-05
-1.38191e-06
-1.38191e-06
2.09453e-06
1.63975e-06
6.38333e-05
-1.69546e-06
2.13832e-06
2.13832e-06
7.79538e-05
1.75299e-06
2.56462e-06
8.91321e-05
9.8781e-07
2.87924e-06
9.68953e-05
-2.2519e-12
3.0463e-06
0.000100872
-9.87813e-07
3.0463e-06
0.000100872
-1.75299e-06
2.87924e-06
9.68953e-05
-2.13831e-06
2.56462e-06
8.91321e-05
-2.09453e-06
2.13831e-06
7.79538e-05
1.63974e-06
6.38333e-05
-1.69546e-06
2.4802e-06
1.33154e-06
7.34599e-05
-1.9652e-06
2.56462e-06
1.75299e-06
8.91321e-05
2.11768e-06
2.11768e-06
0.000101349
1.19747e-06
2.38542e-06
0.000109702
-4.36883e-13
2.52711e-06
0.000113937
-1.19747e-06
2.52711e-06
0.000113937
-2.11769e-06
2.38542e-06
0.000109702
-2.56462e-06
2.11769e-06
0.000101349
-2.4802e-06
1.75299e-06
8.91321e-05
1.33154e-06
7.34599e-05
-1.9652e-06
2.76794e-06
7.47439e-07
8.03662e-05
-2.16495e-06
2.87924e-06
9.87812e-07
9.68953e-05
2.38542e-06
1.19747e-06
0.000109702
1.35106e-06
1.35106e-06
0.000118394
2.49242e-12
1.43219e-06
0.000122777
-1.35106e-06
1.43219e-06
0.000122777
-2.38542e-06
1.35106e-06
0.000118394
-2.87924e-06
1.19747e-06
0.000109702
-2.76794e-06
9.87815e-07
9.68953e-05
7.47442e-07
8.03662e-05
-2.16495e-06
2.92141e-06
2.611e-13
8.39649e-05
-2.2707e-06
3.0463e-06
2.3197e-12
0.000100872
2.52711e-06
2.71525e-12
0.000113937
1.43219e-06
4.96363e-13
0.000122777
3.98904e-12
-2.17701e-12
0.000127223
-1.43219e-06
-3.04144e-12
0.000127223
-2.52711e-06
-1.87396e-12
0.000122777
-3.0463e-06
1.6967e-13
0.000113937
-2.92141e-06
1.98165e-12
0.000100872
3.0314e-12
8.39649e-05
-2.2707e-06
2.92141e-06
-7.47438e-07
8.39649e-05
-2.2707e-06
3.0463e-06
-9.87809e-07
0.000100872
2.5271e-06
-1.19747e-06
0.000113937
1.43219e-06
-1.35106e-06
0.000122777
3.04163e-12
-1.43219e-06
0.000127223
-1.43219e-06
-1.43219e-06
0.000127223
-2.5271e-06
-1.35106e-06
0.000122777
-3.0463e-06
-1.19747e-06
0.000113937
-2.92141e-06
-9.87811e-07
0.000100872
-7.47438e-07
8.39649e-05
-2.2707e-06
2.76794e-06
-1.33154e-06
8.03662e-05
-2.16496e-06
2.87924e-06
-1.75299e-06
9.68953e-05
2.38542e-06
-2.11768e-06
0.000109702
1.35106e-06
-2.38542e-06
0.000118394
5.88716e-13
-2.5271e-06
0.000122777
-1.35106e-06
-2.5271e-06
0.000122777
-2.38542e-06
-2.38542e-06
0.000118394
-2.87924e-06
-2.11768e-06
0.000109702
-2.76794e-06
-1.75299e-06
9.68953e-05
-1.33154e-06
8.03662e-05
-2.16495e-06
2.4802e-06
-1.63975e-06
7.34599e-05
-1.9652e-06
2.56462e-06
-2.13832e-06
8.91321e-05
2.11768e-06
-2.56462e-06
0.000101349
1.19747e-06
-2.87924e-06
0.000109702
-1.3139e-12
-3.04629e-06
0.000113937
-1.19747e-06
-3.04629e-06
0.000113937
-2.11768e-06
-2.87924e-06
0.000109702
-2.56462e-06
-2.56462e-06
0.000101349
-2.4802e-06
-2.13832e-06
8.91321e-05
-1.63975e-06
7.34599e-05
-1.9652e-06
2.09453e-06
-1.64166e-06
6.38333e-05
-1.69546e-06
2.13832e-06
-2.09453e-06
7.79538e-05
1.75299e-06
-2.4802e-06
8.91321e-05
9.8781e-07
-2.76794e-06
9.68953e-05
-1.27731e-12
-2.92141e-06
0.000100872
-9.87811e-07
-2.92141e-06
0.000100872
-1.75299e-06
-2.76794e-06
9.68953e-05
-2.13831e-06
-2.4802e-06
8.91321e-05
-2.09453e-06
-2.09453e-06
7.79538e-05
-1.64166e-06
6.38333e-05
-1.69546e-06
1.64166e-06
5.2289e-05
-1.38191e-06
-1.38191e-06
1.63975e-06
6.38333e-05
-1.69546e-06
1.33155e-06
7.34599e-05
-1.9652e-06
7.47439e-07
8.03662e-05
-2.16496e-06
-7.82625e-14
8.39649e-05
-2.2707e-06
-7.47438e-07
8.39649e-05
-2.2707e-06
-1.33154e-06
8.03662e-05
-2.16495e-06
-1.63975e-06
7.34599e-05
-1.9652e-06
-1.64166e-06
6.38333e-05
-1.69546e-06
5.2289e-05
-1.38191e-06
-1.38191e-06
9.09063e-07
9.09064e-07
5.19879e-05
-7.58538e-07
-7.58538e-07
9.14148e-07
1.16313e-06
6.35971e-05
-9.31953e-07
7.46517e-07
1.38216e-06
7.33271e-05
-1.0818e-06
4.20598e-07
1.5474e-06
8.03382e-05
-1.19341e-06
-1.37145e-12
1.63618e-06
8.4002e-05
-1.25274e-06
-4.20599e-07
1.63618e-06
8.4002e-05
-1.25274e-06
-7.46515e-07
1.5474e-06
8.03382e-05
-1.19341e-06
-9.14145e-07
1.38216e-06
7.33271e-05
-1.08179e-06
-9.09061e-07
1.16312e-06
6.35971e-05
-9.31949e-07
9.09057e-07
5.19879e-05
-7.58536e-07
-7.58535e-07
1.16313e-06
9.14148e-07
6.35971e-05
-9.31952e-07
1.19819e-06
1.19819e-06
7.78837e-05
9.89677e-07
1.44541e-06
8.92774e-05
5.60454e-07
1.63059e-06
9.72413e-05
-7.32981e-13
1.72985e-06
0.000101338
-5.60456e-07
1.72986e-06
0.000101338
-9.8968e-07
1.6306e-06
9.72413e-05
-1.19819e-06
1.44542e-06
8.92774e-05
-1.16313e-06
1.19819e-06
7.78837e-05
9.14146e-07
6.35971e-05
-9.31948e-07
1.38216e-06
7.46517e-07
7.33271e-05
-1.0818e-06
1.44541e-06
9.89677e-07
8.92774e-05
1.20468e-06
1.20468e-06
0.00010183
6.85374e-07
1.36532e-06
0.000110487
3.59044e-12
1.45128e-06
0.000114901
-6.8537e-07
1.45128e-06
0.000114901
-1.20468e-06
1.36533e-06
0.000110487
-1.44542e-06
1.20468e-06
0.00010183
-1.38217e-06
9.89682e-07
8.92774e-05
7.4652e-07
7.33271e-05
-1.0818e-06
1.5474e-06
4.20598e-07
8.03382e-05
-1.19341e-06
1.63059e-06
5.60454e-07
9.72413e-05
1.36532e-06
6.85373e-07
0.000110487
7.78663e-07
7.7866e-07
0.000119568
6.42895e-12
8.28531e-07
0.000124178
-7.78655e-07
8.28529e-07
0.000124178
-1.36533e-06
7.78656e-07
0.000119568
-1.6306e-06
6.8537e-07
0.000110487
-1.54741e-06
5.60456e-07
9.72413e-05
4.20603e-07
8.03382e-05
-1.19341e-06
1.63618e-06
-1.14216e-12
8.4002e-05
-1.25274e-06
1.72985e-06
8.88111e-13
0.000101338
1.45128e-06
4.80227e-12
0.000114901
8.28534e-07
5.26426e-12
0.000124178
4.56826e-12
1.23506e-12
0.00012888
-8.28528e-07
-3.60356e-12
0.00012888
-1.45128e-06
-5.51601e-12
0.000124178
-1.72985e-06
-3.61722e-12
0.000114901
-1.63618e-06
-1.47525e-13
0.000101338
2.06763e-12
8.4002e-05
-1.25274e-06
1.63618e-06
-4.20599e-07
8.4002e-05
-1.25274e-06
1.72985e-06
-5.60454e-07
0.000101338
1.45128e-06
-6.85367e-07
0.000114901
8.2853e-07
-7.78653e-07
0.000124178
-3.05274e-13
-8.28529e-07
0.00012888
-8.2853e-07
-8.28533e-07
0.00012888
-1.45128e-06
-7.78661e-07
0.000124178
-1.72985e-06
-6.85373e-07
0.000114901
-1.63617e-06
-5.60454e-07
0.000101338
-4.20599e-07
8.4002e-05
-1.25274e-06
1.54741e-06
-7.46516e-07
8.03382e-05
-1.19341e-06
1.6306e-06
-9.89679e-07
9.72413e-05
1.36532e-06
-1.20468e-06
0.000110487
7.78654e-07
-1.36532e-06
0.000119568
-4.084e-12
-1.45128e-06
0.000124178
-7.78659e-07
-1.45128e-06
0.000124178
-1.36532e-06
-1.36532e-06
0.000119568
-1.63059e-06
-1.20468e-06
0.000110487
-1.5474e-06
-9.89676e-07
9.72413e-05
-7.46517e-07
8.03382e-05
-1.19341e-06
1.38216e-06
-9.14146e-07
7.33271e-05
-1.0818e-06
1.44542e-06
-1.19819e-06
8.92774e-05
1.20468e-06
-1.44542e-06
0.00010183
6.85368e-07
-1.6306e-06
0.000110487
-3.84041e-12
-1.72985e-06
0.000114901
-6.85371e-07
-1.72985e-06
0.000114901
-1.20468e-06
-1.63059e-06
0.000110487
-1.44541e-06
-1.44541e-06
0.00010183
-1.38216e-06
-1.19819e-06
8.92774e-05
-9.14147e-07
7.33271e-05
-1.0818e-06
1.16313e-06
-9.09062e-07
6.35971e-05
-9.3195e-07
1.19819e-06
-1.16313e-06
7.78837e-05
9.8968e-07
-1.38217e-06
8.92774e-05
5.60454e-07
-1.54741e-06
9.72413e-05
-6.8492e-13
-1.63618e-06
0.000101338
-5.60453e-07
-1.63617e-06
0.000101338
-9.89675e-07
-1.5474e-06
9.72413e-05
-1.19819e-06
-1.38216e-06
8.92774e-05
-1.16313e-06
-1.16313e-06
7.78837e-05
-9.09063e-07
6.35971e-05
-9.31954e-07
9.09061e-07
5.19879e-05
-7.58537e-07
-7.58537e-07
9.14147e-07
6.35971e-05
-9.3195e-07
7.46518e-07
7.33271e-05
-1.0818e-06
4.20601e-07
8.03382e-05
-1.19341e-06
1.77313e-12
8.4002e-05
-1.25274e-06
-4.20598e-07
8.4002e-05
-1.25274e-06
-7.46517e-07
8.03382e-05
-1.19341e-06
-9.14148e-07
7.33271e-05
-1.0818e-06
-9.09063e-07
6.35971e-05
-9.31953e-07
5.19879e-05
-7.58538e-07
-7.58538e-07
5.05602e-07
5.05602e-07
5.18187e-05
-4.21012e-07
-4.21013e-07
5.10416e-07
6.49445e-07
6.34612e-05
-5.18368e-07
4.18344e-07
7.74704e-07
7.32476e-05
-6.0309e-07
2.36302e-07
8.6984e-07
8.03168e-05
-6.66423e-07
-1.05577e-12
9.21164e-07
8.40173e-05
-7.00156e-07
-2.36303e-07
9.21167e-07
8.40173e-05
-7.00156e-07
-4.18344e-07
8.69847e-07
8.03168e-05
-6.66423e-07
-5.10414e-07
7.74708e-07
7.32476e-05
-6.0309e-07
-5.056e-07
6.49444e-07
6.34612e-05
-5.18366e-07
5.05598e-07
5.18187e-05
-4.2101e-07
-4.21009e-07
6.49445e-07
5.10416e-07
6.34612e-05
-5.18368e-07
6.72618e-07
6.7262e-07
7.78374e-05
5.58271e-07
8.15592e-07
8.93509e-05
3.17204e-07
9.23696e-07
9.74285e-05
2.49387e-12
9.81985e-07
0.000101595
-3.17202e-07
9.81988e-07
0.000101595
-5.58274e-07
9.23703e-07
9.74285e-05
-6.72622e-07
8.15598e-07
8.93509e-05
-6.49447e-07
6.72623e-07
7.78374e-05
5.10417e-07
6.34612e-05
-5.18367e-07
7.74705e-07
4.18343e-07
7.32476e-05
-6.03092e-07
8.1559e-07
5.58272e-07
8.93509e-05
6.838e-07
6.83803e-07
0.000102094
3.90605e-07
7.78672e-07
0.000110925
6.16609e-12
8.29799e-07
0.000115444
-3.90598e-07
8.29798e-07
0.000115444
-6.83804e-07
7.78672e-07
0.000110925
-8.15598e-07
6.83804e-07
0.000102094
-7.74709e-07
5.58275e-07
8.93509e-05
4.18348e-07
7.32476e-05
-6.03093e-07
8.69843e-07
2.363e-07
8.03168e-05
-6.66424e-07
9.23696e-07
3.17202e-07
9.74285e-05
7.78668e-07
3.90606e-07
0.000110925
4.46114e-07
4.46118e-07
0.000120233
6.12453e-12
4.7603e-07
0.000124978
-4.46107e-07
4.76025e-07
0.000124978
-7.78671e-07
4.46107e-07
0.000120233