/*--------------------------------*- C++ -*----------------------------------*\
| =========                 |                                                 |
| \\      /  F ield         | OpenFOAM: The Open Source CFD Toolbox           |
|  \\    /   O peration     | Version:  2412                                  |
|   \\  /    A nd           | Website:  www.openfoam.com                      |
|    \\/     M anipulation  |                                                 |
\*---------------------------------------------------------------------------*/
FoamFile
{
    version     2.0;
    format      ascii;
    arch        "LSB;label=32;scalar=64";
    class       volVectorField;
    location    "1.1";
    object      U;
}
// * * * * * * * * * * * * * * * * * * * * * * * * * * * * * * * * * * * * * //

dimensions      [0 1 -1 0 0 0 0];

internalField   nonuniform List<vector> 
15000
(
(0.228907 0.228907 1.09642)
(0.185942 0.242203 1.11728)
(0.134987 0.248633 1.12521)
(0.0815406 0.251801 1.12745)
(0.0272525 0.25306 1.12771)
(-0.0272525 0.25306 1.12771)
(-0.0815406 0.251801 1.12745)
(-0.134987 0.248633 1.12521)
(-0.185942 0.242203 1.11728)
(-0.228907 0.228907 1.09642)
(0.242203 0.185942 1.11728)
(0.191435 0.191435 1.13034)
(0.135769 0.193538 1.13005)
(0.0807933 0.194086 1.12631)
(0.0268006 0.194068 1.12356)
(-0.0268006 0.194068 1.12356)
(-0.0807933 0.194086 1.12631)
(-0.135769 0.193538 1.13005)
(-0.191435 0.191435 1.13034)
(-0.242203 0.185942 1.11728)
(0.248633 0.134987 1.12521)
(0.193538 0.135769 1.13005)
(0.135542 0.135542 1.1239)
(0.0798357 0.13488 1.11643)
(0.0263313 0.134349 1.11191)
(-0.0263313 0.134349 1.11191)
(-0.0798357 0.13488 1.11643)
(-0.135542 0.135542 1.1239)
(-0.193538 0.135769 1.13005)
(-0.248633 0.134987 1.12521)
(0.251801 0.0815406 1.12745)
(0.194086 0.0807933 1.12631)
(0.13488 0.0798357 1.11643)
(0.0789166 0.0789166 1.10682)
(0.0259287 0.0783471 1.10132)
(-0.0259287 0.0783471 1.10132)
(-0.0789166 0.0789166 1.10682)
(-0.13488 0.0798357 1.11643)
(-0.194086 0.0807933 1.12631)
(-0.251801 0.0815406 1.12745)
(0.25306 0.0272525 1.12771)
(0.194068 0.0268006 1.12356)
(0.134349 0.0263313 1.11191)
(0.0783471 0.0259287 1.10132)
(0.0256933 0.0256933 1.09541)
(-0.0256933 0.0256933 1.09541)
(-0.0783471 0.0259287 1.10132)
(-0.134349 0.0263313 1.11191)
(-0.194068 0.0268006 1.12356)
(-0.25306 0.0272525 1.12771)
(0.25306 -0.0272525 1.12771)
(0.194068 -0.0268006 1.12356)
(0.134349 -0.0263313 1.11191)
(0.0783471 -0.0259287 1.10132)
(0.0256933 -0.0256933 1.09541)
(-0.0256933 -0.0256933 1.09541)
(-0.0783471 -0.0259287 1.10132)
(-0.134349 -0.0263313 1.11191)
(-0.194068 -0.0268006 1.12356)
(-0.25306 -0.0272525 1.12771)
(0.251801 -0.0815406 1.12745)
(0.194086 -0.0807933 1.12631)
(0.13488 -0.0798357 1.11643)
(0.0789166 -0.0789165 1.10682)
(0.0259287 -0.0783471 1.10132)
(-0.0259287 -0.0783471 1.10132)
(-0.0789166 -0.0789166 1.10682)
(-0.13488 -0.0798357 1.11643)
(-0.194086 -0.0807933 1.12631)
(-0.251801 -0.0815406 1.12745)
(0.248633 -0.134987 1.12521)
(0.193538 -0.135769 1.13005)
(0.135542 -0.135542 1.1239)
(0.0798357 -0.13488 1.11643)
(0.0263313 -0.134349 1.11191)
(-0.0263313 -0.134349 1.11191)
(-0.0798357 -0.13488 1.11643)
(-0.135542 -0.135542 1.1239)
(-0.193538 -0.135769 1.13005)
(-0.248633 -0.134987 1.12521)
(0.242203 -0.185942 1.11728)
(0.191435 -0.191435 1.13034)
(0.135769 -0.193538 1.13005)
(0.0807933 -0.194086 1.12631)
(0.0268006 -0.194068 1.12356)
(-0.0268006 -0.194068 1.12356)
(-0.0807933 -0.194086 1.12631)
(-0.135769 -0.193538 1.13005)
(-0.191435 -0.191435 1.13034)
(-0.242203 -0.185942 1.11728)
(0.228907 -0.228907 1.09642)
(0.185942 -0.242203 1.11728)
(0.134987 -0.248633 1.12521)
(0.0815406 -0.251801 1.12745)
(0.0272525 -0.25306 1.12771)
(-0.0272525 -0.25306 1.12771)
(-0.0815406 -0.251801 1.12745)
(-0.134987 -0.248633 1.12521)
(-0.185942 -0.242203 1.11728)
(-0.228907 -0.228907 1.09642)
(0.119433 0.119433 1.27601)
(0.105305 0.142195 1.33638)
(0.0822748 0.160323 1.37029)
(0.0523248 0.17285 1.3878)
(0.0179349 0.179205 1.39498)
(-0.0179349 0.179205 1.39498)
(-0.0523248 0.17285 1.3878)
(-0.0822748 0.160323 1.37029)
(-0.105305 0.142195 1.33638)
(-0.119433 0.119433 1.27601)
(0.142195 0.105305 1.33638)
(0.125602 0.125602 1.3917)
(0.0974159 0.141608 1.41407)
(0.0614424 0.152425 1.4211)
(0.0209592 0.157837 1.42242)
(-0.0209592 0.157837 1.42242)
(-0.0614424 0.152425 1.4211)
(-0.0974159 0.141608 1.41407)
(-0.125602 0.125602 1.3917)
(-0.142195 0.105305 1.33638)
(0.160323 0.0822748 1.37029)
(0.141608 0.0974159 1.41407)
(0.109224 0.109224 1.42562)
(0.0684584 0.117081 1.42434)
(0.023269 0.120977 1.42122)
(-0.023269 0.120977 1.42122)
(-0.0684584 0.117081 1.42434)
(-0.109224 0.109224 1.42562)
(-0.141608 0.097416 1.41407)
(-0.160323 0.0822748 1.37029)
(0.17285 0.0523248 1.3878)
(0.152425 0.0614424 1.4211)
(0.117081 0.0684584 1.42434)
(0.0730789 0.0730789 1.41725)
(0.0247827 0.0753577 1.41115)
(-0.0247827 0.0753577 1.41115)
(-0.0730789 0.0730789 1.41725)
(-0.117081 0.0684584 1.42434)
(-0.152425 0.0614424 1.4211)
(-0.17285 0.0523248 1.3878)
(0.179205 0.0179349 1.39498)
(0.157837 0.0209592 1.42242)
(0.120977 0.023269 1.42122)
(0.0753577 0.0247827 1.41115)
(0.0255273 0.0255273 1.40356)
(-0.0255273 0.0255273 1.40356)
(-0.0753577 0.0247827 1.41115)
(-0.120977 0.023269 1.42122)
(-0.157837 0.0209592 1.42242)
(-0.179205 0.0179349 1.39498)
(0.179205 -0.0179349 1.39498)
(0.157837 -0.0209592 1.42242)
(0.120977 -0.023269 1.42122)
(0.0753577 -0.0247827 1.41115)
(0.0255273 -0.0255273 1.40356)
(-0.0255273 -0.0255273 1.40356)
(-0.0753577 -0.0247827 1.41115)
(-0.120977 -0.023269 1.42122)
(-0.157837 -0.0209592 1.42242)
(-0.179205 -0.0179349 1.39498)
(0.17285 -0.0523248 1.3878)
(0.152425 -0.0614424 1.4211)
(0.117081 -0.0684584 1.42434)
(0.0730789 -0.0730789 1.41725)
(0.0247827 -0.0753577 1.41115)
(-0.0247827 -0.0753577 1.41115)
(-0.0730789 -0.0730789 1.41725)
(-0.117081 -0.0684584 1.42434)
(-0.152425 -0.0614424 1.4211)
(-0.17285 -0.0523248 1.3878)
(0.160323 -0.0822748 1.37029)
(0.141608 -0.0974159 1.41407)
(0.109224 -0.109224 1.42562)
(0.0684584 -0.117081 1.42434)
(0.023269 -0.120977 1.42122)
(-0.023269 -0.120977 1.42122)
(-0.0684584 -0.117081 1.42434)
(-0.109224 -0.109224 1.42562)
(-0.141608 -0.0974159 1.41407)
(-0.160323 -0.0822748 1.37029)
(0.142195 -0.105305 1.33638)
(0.125602 -0.125602 1.3917)
(0.0974159 -0.141608 1.41407)
(0.0614424 -0.152425 1.4211)
(0.0209592 -0.157837 1.42242)
(-0.0209592 -0.157837 1.42242)
(-0.0614424 -0.152425 1.4211)
(-0.0974159 -0.141608 1.41407)
(-0.125602 -0.125602 1.3917)
(-0.142195 -0.105305 1.33638)
(0.119433 -0.119433 1.27601)
(0.105305 -0.142195 1.33638)
(0.0822748 -0.160323 1.37029)
(0.0523248 -0.17285 1.3878)
(0.0179349 -0.179205 1.39498)
(-0.0179349 -0.179205 1.39498)
(-0.0523248 -0.17285 1.3878)
(-0.0822748 -0.160323 1.37029)
(-0.105305 -0.142195 1.33638)
(-0.119433 -0.119433 1.27601)
(0.0691678 0.0691678 1.1775)
(0.0663285 0.0860612 1.28498)
(0.0542915 0.100121 1.35876)
(0.0355724 0.110451 1.40443)
(0.0123761 0.115907 1.42606)
(-0.0123761 0.115907 1.42606)
(-0.0355724 0.110451 1.40443)
(-0.0542915 0.100121 1.35876)
(-0.0663285 0.0860612 1.28498)
(-0.0691678 0.0691679 1.1775)
(0.0860612 0.0663285 1.28498)
(0.0829902 0.0829902 1.40363)
(0.0680489 0.0969392 1.47467)
(0.0444957 0.107019 1.51405)
(0.01545 0.112284 1.5314)
(-0.01545 0.112284 1.5314)
(-0.0444957 0.107019 1.51405)
(-0.0680489 0.0969392 1.47467)
(-0.0829902 0.0829902 1.40363)
(-0.0860612 0.0663285 1.28498)
(0.100121 0.0542915 1.35876)
(0.0969392 0.0680489 1.47467)
(0.079551 0.0795511 1.53953)
(0.0519013 0.0877176 1.57249)
(0.0179916 0.0919409 1.58593)
(-0.0179916 0.0919409 1.58593)
(-0.0519013 0.0877176 1.57249)
(-0.079551 0.079551 1.53953)
(-0.0969392 0.0680489 1.47467)
(-0.100121 0.0542915 1.35876)
(0.110451 0.0355724 1.40443)
(0.107019 0.0444957 1.51405)
(0.0877176 0.0519014 1.57249)
(0.0571038 0.0571038 1.60012)
(0.0197696 0.0597794 1.61056)
(-0.0197696 0.0597794 1.61056)
(-0.0571038 0.0571038 1.60012)
(-0.0877176 0.0519013 1.57249)
(-0.107019 0.0444957 1.51405)
(-0.110451 0.0355724 1.40443)
(0.115907 0.0123761 1.42606)
(0.112284 0.01545 1.5314)
(0.0919409 0.0179916 1.58593)
(0.0597793 0.0197696 1.61056)
(0.0206819 0.0206819 1.61936)
(-0.0206819 0.0206819 1.61936)
(-0.0597793 0.0197696 1.61056)
(-0.0919409 0.0179916 1.58593)
(-0.112284 0.01545 1.5314)
(-0.115907 0.0123761 1.42606)
(0.115907 -0.0123761 1.42606)
(0.112284 -0.01545 1.5314)
(0.0919409 -0.0179916 1.58593)
(0.0597794 -0.0197696 1.61056)
(0.0206819 -0.0206819 1.61936)
(-0.0206819 -0.0206819 1.61936)
(-0.0597793 -0.0197696 1.61056)
(-0.0919409 -0.0179916 1.58593)
(-0.112284 -0.01545 1.5314)
(-0.115907 -0.0123761 1.42606)
(0.110451 -0.0355724 1.40443)
(0.107019 -0.0444957 1.51405)
(0.0877176 -0.0519013 1.57249)
(0.0571038 -0.0571038 1.60012)
(0.0197696 -0.0597793 1.61056)
(-0.0197696 -0.0597793 1.61056)
(-0.0571038 -0.0571038 1.60012)
(-0.0877176 -0.0519013 1.57249)
(-0.107019 -0.0444957 1.51405)
(-0.110451 -0.0355723 1.40443)
(0.100121 -0.0542915 1.35876)
(0.0969392 -0.0680489 1.47467)
(0.079551 -0.079551 1.53953)
(0.0519014 -0.0877176 1.57249)
(0.0179916 -0.0919409 1.58593)
(-0.0179916 -0.0919409 1.58593)
(-0.0519013 -0.0877176 1.57249)
(-0.079551 -0.079551 1.53953)
(-0.0969392 -0.0680489 1.47467)
(-0.100121 -0.0542915 1.35876)
(0.0860612 -0.0663285 1.28498)
(0.0829902 -0.0829902 1.40363)
(0.0680489 -0.0969392 1.47467)
(0.0444957 -0.107019 1.51405)
(0.01545 -0.112284 1.5314)
(-0.01545 -0.112284 1.5314)
(-0.0444957 -0.107019 1.51405)
(-0.0680489 -0.0969392 1.47467)
(-0.0829902 -0.0829902 1.40363)
(-0.0860612 -0.0663285 1.28498)
(0.0691678 -0.0691678 1.1775)
(0.0663285 -0.0860612 1.28498)
(0.0542915 -0.100121 1.35876)
(0.0355724 -0.110451 1.40443)
(0.0123761 -0.115907 1.42606)
(-0.0123761 -0.115907 1.42606)
(-0.0355724 -0.110451 1.40443)
(-0.0542915 -0.100121 1.35876)
(-0.0663285 -0.0860612 1.28498)
(-0.0691678 -0.0691678 1.1775)
(0.0332516 0.0332516 1.16091)
(0.0331316 0.0433267 1.28641)
(0.0280844 0.052317 1.37799)
(0.0188541 0.0591906 1.43758)
(0.00663982 0.0629071 1.46676)
(-0.00663981 0.0629071 1.46676)
(-0.0188541 0.0591907 1.43758)
(-0.0280844 0.052317 1.37799)
(-0.0331316 0.0433267 1.28641)
(-0.0332516 0.0332516 1.16091)
(0.0433267 0.0331316 1.28641)
(0.0439778 0.0439778 1.43448)
(0.0376122 0.0536891 1.53212)
(0.0252891 0.0610167 1.5912)
(0.00890236 0.0649471 1.61892)
(-0.00890235 0.0649471 1.61892)
(-0.0252891 0.0610167 1.5912)
(-0.0376122 0.0536891 1.53212)
(-0.0439778 0.0439778 1.43448)
(-0.0433267 0.0331316 1.28641)
(0.052317 0.0280844 1.37799)
(0.0536891 0.0376122 1.53212)
(0.0461137 0.0461137 1.63022)
(0.0310001 0.0524368 1.68711)
(0.010906 0.0558026 1.71295)
(-0.010906 0.0558025 1.71295)
(-0.0310001 0.0524368 1.68711)
(-0.0461137 0.0461137 1.63022)
(-0.0536891 0.0376122 1.53212)
(-0.052317 0.0280844 1.37799)
(0.0591907 0.0188541 1.43758)
(0.0610167 0.0252891 1.5912)
(0.0524368 0.0310001 1.68711)
(0.0352135 0.0352135 1.74128)
(0.0123798 0.0374466 1.76533)
(-0.0123798 0.0374466 1.76533)
(-0.0352135 0.0352135 1.74128)
(-0.0524368 0.0310001 1.68711)
(-0.0610167 0.0252891 1.5912)
(-0.0591906 0.0188541 1.43758)
(0.0629071 0.00663983 1.46676)
(0.0649471 0.00890236 1.61892)
(0.0558026 0.010906 1.71295)
(0.0374466 0.0123798 1.76533)
(0.0131595 0.0131595 1.78829)
(-0.0131595 0.0131595 1.78829)
(-0.0374466 0.0123798 1.76533)
(-0.0558025 0.010906 1.71295)
(-0.0649471 0.00890236 1.61892)
(-0.0629071 0.00663982 1.46676)
(0.0629071 -0.00663982 1.46676)
(0.0649471 -0.00890236 1.61892)
(0.0558025 -0.010906 1.71295)
(0.0374466 -0.0123798 1.76533)
(0.0131595 -0.0131595 1.78829)
(-0.0131595 -0.0131595 1.78829)
(-0.0374466 -0.0123798 1.76533)
(-0.0558025 -0.010906 1.71295)
(-0.0649471 -0.00890235 1.61892)
(-0.0629071 -0.00663981 1.46676)
(0.0591907 -0.0188541 1.43758)
(0.0610167 -0.0252891 1.5912)
(0.0524368 -0.0310001 1.68711)
(0.0352135 -0.0352135 1.74128)
(0.0123798 -0.0374466 1.76533)
(-0.0123798 -0.0374466 1.76533)
(-0.0352135 -0.0352135 1.74128)
(-0.0524368 -0.0310001 1.68711)
(-0.0610167 -0.0252891 1.5912)
(-0.0591907 -0.0188541 1.43758)
(0.052317 -0.0280844 1.37799)
(0.0536891 -0.0376122 1.53212)
(0.0461137 -0.0461137 1.63022)
(0.0310001 -0.0524368 1.68711)
(0.010906 -0.0558025 1.71295)
(-0.010906 -0.0558025 1.71295)
(-0.0310001 -0.0524368 1.68711)
(-0.0461137 -0.0461137 1.63022)
(-0.0536891 -0.0376122 1.53212)
(-0.052317 -0.0280844 1.37799)
(0.0433267 -0.0331316 1.28641)
(0.0439778 -0.0439778 1.43448)
(0.0376122 -0.0536891 1.53212)
(0.0252891 -0.0610167 1.5912)
(0.00890236 -0.0649471 1.61892)
(-0.00890236 -0.0649471 1.61892)
(-0.0252891 -0.0610167 1.5912)
(-0.0376122 -0.0536891 1.53212)
(-0.0439778 -0.0439778 1.43448)
(-0.0433267 -0.0331316 1.28641)
(0.0332516 -0.0332516 1.16091)
(0.0331316 -0.0433267 1.28641)
(0.0280844 -0.052317 1.37799)
(0.0188541 -0.0591906 1.43758)
(0.00663982 -0.0629071 1.46676)
(-0.00663982 -0.0629071 1.46676)
(-0.0188541 -0.0591906 1.43758)
(-0.0280844 -0.052317 1.37799)
(-0.0331316 -0.0433267 1.28641)
(-0.0332516 -0.0332516 1.16091)
(0.0175934 0.0175934 1.1293)
(0.0181395 0.0231494 1.26458)
(0.0156937 0.0282379 1.36677)
(0.0106825 0.0322345 1.43514)
(0.00378898 0.0344323 1.46924)
(-0.00378898 0.0344323 1.46924)
(-0.0106825 0.0322345 1.43514)
(-0.0156937 0.0282379 1.36677)
(-0.0181395 0.0231494 1.26458)
(-0.0175934 0.0175934 1.1293)
(0.0231494 0.0181395 1.26458)
(0.0243795 0.0243795 1.42938)
(0.0213914 0.0301743 1.54374)
(0.0146363 0.0346862 1.61603)
(0.00519826 0.0371533 1.651)
(-0.00519827 0.0371533 1.651)
(-0.0146363 0.0346861 1.61603)
(-0.0213914 0.0301743 1.54374)
(-0.0243795 0.0243795 1.42938)
(-0.0231494 0.0181395 1.26458)
(0.0282379 0.0156937 1.36677)
(0.0301743 0.0213914 1.54374)
(0.0266956 0.0266956 1.66384)
(0.0183097 0.0307757 1.73774)
(0.00650695 0.0329926 1.77278)
(-0.00650697 0.0329926 1.77278)
(-0.0183097 0.0307757 1.73774)
(-0.0266956 0.0266956 1.66384)
(-0.0301743 0.0213914 1.54374)
(-0.0282379 0.0156937 1.36677)
(0.0322345 0.0106825 1.43514)
(0.0346861 0.0146363 1.61603)
(0.0307757 0.0183097 1.73774)
(0.0211171 0.0211171 1.81159)
(0.0075049 0.0226372 1.84619)
(-0.00750492 0.0226372 1.84619)
(-0.0211171 0.0211171 1.81159)
(-0.0307757 0.0183097 1.73774)
(-0.0346861 0.0146363 1.61603)
(-0.0322345 0.0106825 1.43514)
(0.0344323 0.00378899 1.46924)
(0.0371533 0.00519828 1.651)
(0.0329926 0.00650695 1.77278)
(0.0226372 0.00750489 1.84619)
(0.00804452 0.0080445 1.8804)
(-0.00804451 0.00804451 1.8804)
(-0.0226372 0.00750492 1.84619)
(-0.0329926 0.00650697 1.77278)
(-0.0371533 0.00519828 1.651)
(-0.0344324 0.00378899 1.46924)
(0.0344323 -0.00378898 1.46924)
(0.0371533 -0.00519826 1.651)
(0.0329925 -0.00650695 1.77278)
(0.0226372 -0.00750491 1.84619)
(0.00804452 -0.00804452 1.8804)
(-0.00804449 -0.00804451 1.8804)
(-0.0226371 -0.0075049 1.84619)
(-0.0329925 -0.00650694 1.77278)
(-0.0371533 -0.00519826 1.651)
(-0.0344324 -0.00378897 1.46924)
(0.0322345 -0.0106825 1.43514)
(0.0346861 -0.0146363 1.61603)
(0.0307756 -0.0183097 1.73774)
(0.0211171 -0.0211171 1.81159)
(0.00750492 -0.0226371 1.84619)
(-0.00750489 -0.0226372 1.84619)
(-0.0211171 -0.0211171 1.81159)
(-0.0307757 -0.0183097 1.73774)
(-0.0346861 -0.0146363 1.61603)
(-0.0322345 -0.0106825 1.43514)
(0.0282379 -0.0156937 1.36677)
(0.0301743 -0.0213914 1.54374)
(0.0266956 -0.0266956 1.66384)
(0.0183097 -0.0307756 1.73774)
(0.00650696 -0.0329925 1.77278)
(-0.00650694 -0.0329925 1.77278)
(-0.0183097 -0.0307757 1.73774)
(-0.0266956 -0.0266956 1.66384)
(-0.0301743 -0.0213914 1.54374)
(-0.0282379 -0.0156937 1.36677)
(0.0231494 -0.0181395 1.26458)
(0.0243795 -0.0243795 1.42938)
(0.0213914 -0.0301743 1.54374)
(0.0146363 -0.0346861 1.61603)
(0.00519826 -0.0371533 1.651)
(-0.00519827 -0.0371533 1.651)
(-0.0146363 -0.0346861 1.61603)
(-0.0213914 -0.0301743 1.54374)
(-0.0243795 -0.0243795 1.42938)
(-0.0231494 -0.0181395 1.26458)
(0.0175934 -0.0175934 1.1293)
(0.0181395 -0.0231494 1.26458)
(0.0156937 -0.0282379 1.36677)
(0.0106825 -0.0322345 1.43514)
(0.00378898 -0.0344323 1.46924)
(-0.00378898 -0.0344323 1.46924)
(-0.0106825 -0.0322345 1.43514)
(-0.0156937 -0.0282379 1.36677)
(-0.0181395 -0.0231494 1.26458)
(-0.0175934 -0.0175934 1.1293)
(0.00911974 0.00911974 1.11711)
(0.00954266 0.0121596 1.25663)
(0.00838316 0.0150161 1.36387)
(0.00577078 0.0172965 1.43664)
(0.00205882 0.0185634 1.4733)
(-0.00205882 0.0185633 1.4733)
(-0.00577077 0.0172965 1.43664)
(-0.00838315 0.0150161 1.36387)
(-0.00954264 0.0121595 1.25663)
(-0.00911972 0.00911972 1.11711)
(0.0121596 0.00954266 1.25663)
(0.0130698 0.0130698 1.42944)
(0.0116856 0.0164394 1.5525)
(0.00810291 0.0191161 1.63208)
(0.00289769 0.0205983 1.67117)
(-0.00289772 0.0205983 1.67117)
(-0.00810292 0.0191161 1.63208)
(-0.0116856 0.0164393 1.5525)
(-0.0130697 0.0130697 1.42944)
(-0.0121595 0.00954263 1.25663)
(0.0150161 0.00838316 1.36387)
(0.0164394 0.0116856 1.5525)
(0.0148559 0.0148558 1.6848)
(0.0103427 0.0173519 1.76869)
(0.003704 0.018728 1.80931)
(-0.00370401 0.0187281 1.80931)
(-0.0103427 0.0173519 1.76869)
(-0.0148559 0.0148559 1.6848)
(-0.0164394 0.0116856 1.5525)
(-0.0150161 0.00838315 1.36387)
(0.0172965 0.00577078 1.43664)
(0.0191161 0.00810291 1.63208)
(0.0173519 0.0103427 1.76869)
(0.0120986 0.0120985 1.85458)
(0.00433533 0.0130643 1.89588)
(-0.0043353 0.0130643 1.89588)
(-0.0120986 0.0120986 1.85458)
(-0.0173519 0.0103427 1.76869)
(-0.0191161 0.00810293 1.63208)
(-0.0172965 0.00577079 1.43664)
(0.0185633 0.00205883 1.4733)
(0.0205983 0.00289771 1.67117)
(0.018728 0.00370401 1.80931)
(0.0130643 0.0043353 1.89588)
(0.00468228 0.00468224 1.93736)
(-0.00468224 0.00468224 1.93736)
(-0.0130643 0.00433531 1.89588)
(-0.018728 0.00370401 1.80931)
(-0.0205983 0.00289772 1.67117)
(-0.0185634 0.00205885 1.4733)
(0.0185634 -0.00205882 1.4733)
(0.0205983 -0.00289769 1.67117)
(0.018728 -0.00370398 1.80931)
(0.0130643 -0.0043353 1.89588)
(0.00468227 -0.00468226 1.93736)
(-0.00468224 -0.00468227 1.93736)
(-0.0130643 -0.00433532 1.89588)
(-0.018728 -0.003704 1.80931)
(-0.0205983 -0.0028977 1.67117)
(-0.0185633 -0.00205881 1.4733)
(0.0172965 -0.00577078 1.43664)
(0.0191161 -0.0081029 1.63208)
(0.0173519 -0.0103427 1.76869)
(0.0120985 -0.0120985 1.85458)
(0.0043353 -0.0130643 1.89588)
(-0.0043353 -0.0130643 1.89588)
(-0.0120985 -0.0120986 1.85458)
(-0.0173519 -0.0103427 1.76869)
(-0.0191161 -0.00810291 1.63208)
(-0.0172965 -0.00577078 1.43664)
(0.0150161 -0.00838317 1.36387)
(0.0164394 -0.0116856 1.5525)
(0.0148558 -0.0148558 1.6848)
(0.0103427 -0.0173519 1.76869)
(0.00370398 -0.018728 1.80931)
(-0.003704 -0.018728 1.80931)
(-0.0103427 -0.0173519 1.76869)
(-0.0148558 -0.0148558 1.6848)
(-0.0164394 -0.0116856 1.5525)
(-0.0150161 -0.00838317 1.36387)
(0.0121596 -0.00954265 1.25663)
(0.0130698 -0.0130698 1.42944)
(0.0116856 -0.0164394 1.5525)
(0.0081029 -0.0191161 1.63208)
(0.00289769 -0.0205983 1.67117)
(-0.00289771 -0.0205983 1.67117)
(-0.0081029 -0.0191161 1.63208)
(-0.0116856 -0.0164394 1.5525)
(-0.0130698 -0.0130698 1.42944)
(-0.0121596 -0.00954265 1.25663)
(0.00911973 -0.00911973 1.11711)
(0.00954266 -0.0121596 1.25663)
(0.00838317 -0.0150161 1.36387)
(0.00577079 -0.0172965 1.43664)
(0.00205883 -0.0185633 1.4733)
(-0.00205883 -0.0185633 1.4733)
(-0.00577078 -0.0172965 1.43664)
(-0.00838316 -0.0150161 1.36387)
(-0.00954265 -0.0121596 1.25663)
(-0.00911974 -0.00911973 1.11711)
(0.00503656 0.00503656 1.10828)
(0.00532507 0.00671704 1.25012)
(0.00471055 0.00830968 1.36021)
(0.00325937 0.00959353 1.43552)
(0.0011661 0.0103114 1.47367)
(-0.00116611 0.0103114 1.47367)
(-0.00325937 0.00959352 1.43552)
(-0.00471053 0.00830965 1.3602)
(-0.00532505 0.006717 1.25012)
(-0.00503654 0.00503652 1.10828)
(0.00671704 0.00532507 1.25012)
(0.00730224 0.00730224 1.42731)
(0.00658905 0.00921805 1.55531)
(0.00460079 0.0107598 1.63915)
(0.00165148 0.0116206 1.68069)
(-0.00165149 0.0116207 1.68069)
(-0.0046008 0.0107598 1.63915)
(-0.00658906 0.00921807 1.55531)
(-0.00730224 0.00730223 1.42731)
(-0.00671701 0.00532504 1.25012)
(0.00830967 0.00471055 1.36021)
(0.00921805 0.00658905 1.55531)
(0.00842525 0.00842524 1.69468)
(0.00591586 0.00989328 1.78453)
(0.0021283 0.0107106 1.82856)
(-0.00212826 0.0107106 1.82856)
(-0.00591586 0.00989334 1.78453)
(-0.00842528 0.00842529 1.69468)
(-0.00921808 0.00658907 1.55531)
(-0.00830967 0.00471055 1.36021)
(0.00959352 0.00325937 1.43552)
(0.0107598 0.00460079 1.63915)
(0.00989329 0.00591585 1.78453)
(0.00696449 0.00696447 1.87776)
(0.00250837 0.00754753 1.92322)
(-0.0025083 0.00754754 1.92322)
(-0.00696447 0.00696448 1.87776)
(-0.00989333 0.00591587 1.78453)
(-0.0107598 0.00460081 1.63915)
(-0.00959353 0.0032594 1.43552)
(0.0103114 0.0011661 1.47367)
(0.0116206 0.00165148 1.68069)
(0.0107106 0.0021283 1.82856)
(0.00754754 0.00250835 1.92322)
(0.0027196 0.00271958 1.96928)
(-0.00271955 0.00271956 1.96928)
(-0.00754753 0.0025083 1.92322)
(-0.0107106 0.00212826 1.82856)
(-0.0116206 0.00165149 1.68069)
(-0.0103113 0.00116613 1.47367)
(0.0103114 -0.00116611 1.47367)
(0.0116207 -0.00165148 1.68069)
(0.0107106 -0.00212825 1.82856)
(0.00754753 -0.0025083 1.92322)
(0.00271957 -0.00271957 1.96928)
(-0.00271958 -0.00271959 1.96928)
(-0.00754753 -0.00250836 1.92322)
(-0.0107106 -0.00212829 1.82856)
(-0.0116206 -0.00165148 1.68069)
(-0.0103113 -0.0011661 1.47367)
(0.00959353 -0.00325937 1.43552)
(0.0107598 -0.0046008 1.63915)
(0.00989332 -0.00591584 1.78453)
(0.00696446 -0.00696446 1.87776)
(0.0025083 -0.00754753 1.92322)
(-0.00250835 -0.00754754 1.92322)
(-0.00696447 -0.00696448 1.87776)
(-0.00989328 -0.00591585 1.78453)
(-0.0107598 -0.00460078 1.63915)
(-0.00959352 -0.00325937 1.43552)
(0.00830967 -0.00471054 1.3602)
(0.00921808 -0.00658906 1.55531)
(0.00842528 -0.00842527 1.69468)
(0.00591585 -0.00989331 1.78453)
(0.00212825 -0.0107106 1.82856)
(-0.00212829 -0.0107106 1.82856)
(-0.00591584 -0.00989328 1.78453)
(-0.00842524 -0.00842524 1.69468)
(-0.00921805 -0.00658904 1.55531)
(-0.00830968 -0.00471055 1.36021)
(0.00671702 -0.00532506 1.25012)
(0.00730224 -0.00730224 1.42731)
(0.00658906 -0.00921808 1.55531)
(0.0046008 -0.0107598 1.63915)
(0.00165148 -0.0116206 1.68069)
(-0.00165148 -0.0116206 1.68069)
(-0.00460078 -0.0107597 1.63915)
(-0.00658904 -0.00921805 1.55531)
(-0.00730224 -0.00730224 1.42731)
(-0.00671705 -0.00532507 1.25012)
(0.00503654 -0.00503654 1.10828)
(0.00532506 -0.00671702 1.25012)
(0.00471055 -0.00830967 1.3602)
(0.00325938 -0.00959353 1.43552)
(0.00116612 -0.0103113 1.47367)
(-0.0011661 -0.0103113 1.47367)
(-0.00325937 -0.00959352 1.43552)
(-0.00471055 -0.00830968 1.36021)
(-0.00532507 -0.00671704 1.25012)
(-0.00503656 -0.00503655 1.10828)
(0.00279516 0.00279517 1.10386)
(0.00296688 0.00373866 1.24689)
(0.00263719 0.00463936 1.35849)
(0.00183173 0.00536912 1.43519)
(0.000656699 0.00577851 1.47416)
(-0.000656711 0.00577853 1.47416)
(-0.00183174 0.00536914 1.43519)
(-0.00263719 0.00463937 1.35849)
(-0.00296687 0.00373865 1.24689)
(-0.00279515 0.00279514 1.10386)
(0.00373866 0.00296689 1.24689)
(0.00408739 0.0040874 1.4264)
(0.00371073 0.00518301 1.5571)
(0.00260333 0.00607101 1.64331)
(0.000936904 0.00656925 1.68624)
(-0.000936879 0.00656927 1.68624)
(-0.00260334 0.00607106 1.64331)
(-0.00371076 0.00518304 1.5571)
(-0.00408742 0.00408741 1.4264)
(-0.00373866 0.00296687 1.24689)
(0.00463937 0.00263719 1.35849)
(0.005183 0.00371074 1.5571)
(0.00477162 0.00477164 1.70041)
(0.00336931 0.00562764 1.79368)
(0.00121587 0.00610711 1.83967)
(-0.00121581 0.00610712 1.83967)
(-0.00336931 0.00562767 1.79368)
(-0.00477166 0.00477167 1.70041)
(-0.00518305 0.00371077 1.5571)
(-0.00463938 0.00263721 1.35849)
(0.00536913 0.00183173 1.43519)
(0.00607102 0.00260333 1.64331)
(0.00562763 0.00336933 1.79368)
(0.00398663 0.00398665 1.89117)
(0.00144076 0.00433227 1.93908)
(-0.00144069 0.00433226 1.93908)
(-0.00398661 0.00398662 1.89117)
(-0.00562766 0.00336931 1.79368)
(-0.00607105 0.00260334 1.64331)
(-0.00536914 0.00183176 1.43519)
(0.00577853 0.000656691 1.47416)
(0.00656927 0.000936884 1.68624)
(0.00610712 0.00121587 1.83967)
(0.00433226 0.00144078 1.93908)
(0.00156666 0.00156669 1.98787)
(-0.00156665 0.00156665 1.98787)
(-0.00433226 0.0014407 1.93908)
(-0.00610712 0.00121581 1.83967)
(-0.00656926 0.000936875 1.68624)
(-0.00577851 0.000656704 1.47416)
(0.00577852 -0.000656711 1.47416)
(0.00656929 -0.000936906 1.68624)
(0.00610715 -0.00121583 1.83967)
(0.00433226 -0.0014407 1.93908)
(0.00156663 -0.00156663 1.98787)
(-0.00156668 -0.00156665 1.98787)
(-0.00433227 -0.00144075 1.93908)
(-0.00610711 -0.00121586 1.83967)
(-0.00656925 -0.000936903 1.68624)
(-0.0057785 -0.000656713 1.47416)
(0.00536911 -0.00183173 1.43519)
(0.00607106 -0.00260335 1.64331)
(0.0056277 -0.00336934 1.79368)
(0.00398665 -0.00398664 1.89117)
(0.0014407 -0.00433226 1.93908)
(-0.00144077 -0.00433226 1.93908)
(-0.00398665 -0.00398662 1.89117)
(-0.00562764 -0.00336931 1.79368)
(-0.00607102 -0.00260332 1.64331)
(-0.00536911 -0.00183173 1.43519)
(0.00463933 -0.00263717 1.35849)
(0.00518302 -0.00371074 1.5571)
(0.00477168 -0.00477167 1.70041)
(0.00336934 -0.00562769 1.79368)
(0.00121583 -0.00610714 1.83967)
(-0.00121586 -0.00610712 1.83967)
(-0.00336932 -0.00562763 1.79368)
(-0.00477163 -0.00477162 1.70041)
(-0.00518301 -0.00371072 1.5571)
(-0.00463937 -0.00263718 1.35849)
(0.00373863 -0.00296686 1.24689)
(0.00408738 -0.00408737 1.4264)
(0.00371075 -0.00518302 1.5571)
(0.00260335 -0.00607106 1.64331)
(0.000936906 -0.00656928 1.68624)
(-0.000936885 -0.00656926 1.68624)
(-0.00260333 -0.00607102 1.64331)
(-0.00371073 -0.005183 1.5571)
(-0.00408739 -0.00408739 1.4264)
(-0.00373867 -0.00296688 1.24689)
(0.00279516 -0.00279516 1.10386)
(0.00296686 -0.00373863 1.24689)
(0.00263717 -0.00463934 1.35849)
(0.00183174 -0.00536912 1.43519)
(0.000656722 -0.00577852 1.47416)
(-0.000656688 -0.00577852 1.47416)
(-0.00183173 -0.00536912 1.43519)
(-0.00263719 -0.00463936 1.35849)
(-0.00296688 -0.00373867 1.24689)
(-0.00279516 -0.00279517 1.10386)
(0.00159768 0.00159769 1.10117)
(0.0016996 0.00213554 1.24487)
(0.00151314 0.0026498 1.35733)
(0.00105241 0.0030675 1.43483)
(0.000377605 0.00330225 1.47427)
(-0.0003776 0.00330227 1.47427)
(-0.00105241 0.00306755 1.43483)
(-0.00151316 0.00264986 1.35733)
(-0.00169962 0.00213557 1.24487)
(-0.00159769 0.00159769 1.10117)
(0.00213554 0.00169961 1.24487)
(0.00234021 0.00234022 1.42569)
(0.0021294 0.00296893 1.55794)
(0.0014969 0.0034805 1.64552)
(0.000539353 0.00376829 1.68925)
(-0.000539303 0.0037683 1.68925)
(-0.00149689 0.00348053 1.64552)
(-0.00212942 0.00296897 1.55794)
(-0.00234025 0.00234026 1.42569)
(-0.00213558 0.00169964 1.24487)
(0.00264982 0.00151314 1.35733)
(0.00296893 0.00212942 1.55794)
(0.00274177 0.0027418 1.70352)
(0.00194115 0.00323848 1.79876)
(0.000701559 0.00351764 1.84592)
(-0.000701517 0.00351763 1.84592)
(-0.00194113 0.00323844 1.79876)
(-0.00274177 0.00274177 1.70352)
(-0.00296895 0.00212942 1.55794)
(-0.00264985 0.00151318 1.35733)
(0.00306753 0.0010524 1.43483)
(0.00348053 0.0014969 1.64552)
(0.00323846 0.00194118 1.79876)
(0.0023014 0.00230145 1.89875)
(0.000833198 0.002504 1.94811)
(-0.000833197 0.00250397 1.94811)
(-0.00230139 0.00230139 1.89875)
(-0.00323844 0.00194113 1.79876)
(-0.0034805 0.00149688 1.64552)
(-0.00306752 0.0010524 1.43483)
(0.00330227 0.000377593 1.47427)
(0.00376834 0.000539317 1.68925)
(0.00351767 0.000701554 1.84592)
(0.00250396 0.000833243 1.94811)
(0.00090724 0.000907309 1.99852)
(-0.000907286 0.00090729 1.99852)
(-0.00250397 0.000833203 1.94811)
(-0.00351763 0.000701523 1.84592)
(-0.00376829 0.000539297 1.68925)
(-0.00330224 0.000377566 1.47427)
(0.00330225 -0.0003776 1.47427)
(0.00376834 -0.000539354 1.68925)
(0.00351769 -0.000701571 1.84592)
(0.00250399 -0.000833206 1.94811)
(0.000907244 -0.00090724 1.99852)
(-0.000907303 -0.000907237 1.99852)
(-0.00250399 -0.000833192 1.94811)
(-0.00351765 -0.000701547 1.84592)
(-0.0037683 -0.000539345 1.68925)
(-0.00330224 -0.000377627 1.47427)
(0.00306749 -0.00105239 1.43483)
(0.00348052 -0.00149691 1.64552)
(0.00323851 -0.0019412 1.79876)
(0.00230146 -0.00230145 1.89875)
(0.000833209 -0.00250398 1.94811)
(-0.000833238 -0.00250396 1.94811)
(-0.00230145 -0.0023014 1.89875)
(-0.00323848 -0.00194114 1.79876)
(-0.00348052 -0.00149689 1.64552)
(-0.00306752 -0.0010524 1.43483)
(0.00264978 -0.00151312 1.35733)
(0.00296891 -0.00212939 1.55794)
(0.0027418 -0.0027418 1.70352)
(0.0019412 -0.0032385 1.79876)
(0.000701572 -0.00351768 1.84592)
(-0.000701554 -0.00351766 1.84592)
(-0.00194118 -0.00323846 1.79876)
(-0.00274179 -0.00274177 1.70352)
(-0.00296894 -0.00212939 1.55794)
(-0.00264982 -0.00151311 1.35733)
(0.00213552 -0.0016996 1.24487)
(0.00234019 -0.00234018 1.42569)
(0.0021294 -0.00296891 1.55794)
(0.00149692 -0.00348052 1.64552)
(0.000539357 -0.00376834 1.68925)
(-0.00053932 -0.00376833 1.68925)
(-0.0014969 -0.00348052 1.64552)
(-0.00212941 -0.00296893 1.55794)
(-0.00234021 -0.00234021 1.42569)
(-0.00213554 -0.00169959 1.24487)
(0.0015977 -0.00159769 1.10117)
(0.00169959 -0.00213552 1.24487)
(0.00151312 -0.00264978 1.35733)
(0.00105239 -0.0030675 1.43483)
(0.000377608 -0.00330226 1.47427)
(-0.000377589 -0.00330227 1.47427)
(-0.0010524 -0.00306752 1.43483)
(-0.00151314 -0.00264982 1.35733)
(-0.00169959 -0.00213554 1.24487)
(-0.00159768 -0.00159769 1.10117)
(0.000919382 0.00091938 1.09967)
(0.000978473 0.00122952 1.24375)
(0.000871953 0.00152647 1.3567)
(0.000606975 0.00176789 1.43465)
(0.0002179 0.00190366 1.47437)
(-0.000217876 0.00190368 1.47437)
(-0.000606974 0.00176793 1.43465)
(-0.000871983 0.00152654 1.3567)
(-0.00097852 0.0012296 1.24375)
(-0.000919412 0.000919432 1.09967)
(0.00122953 0.000978473 1.24375)
(0.00134845 0.00134846 1.42531)
(0.00122853 0.00171232 1.55844)
(0.0008646 0.0020089 1.64681)
(0.000311735 0.00217594 1.69101)
(-0.00031169 0.00217592 1.69101)
(-0.000864563 0.00200886 1.64681)
(-0.00122852 0.00171231 1.55844)
(-0.00134849 0.00134851 1.42531)
(-0.0012296 0.000978556 1.24375)
(0.00152649 0.000871954 1.3567)
(0.00171232 0.00122855 1.55844)
(0.00158389 0.00158391 1.70532)
(0.00112301 0.0018729 1.80171)
(0.000406192 0.00203562 1.84954)
(-0.000406216 0.00203559 1.84954)
(-0.00112298 0.00187281 1.80171)
(-0.00158382 0.00158382 1.70532)
(-0.00171227 0.00122852 1.55844)