/*--------------------------------*- C++ -*----------------------------------*\
| =========                 |                                                 |
| \\      /  F ield         | OpenFOAM: The Open Source CFD Toolbox           |
|  \\    /   O peration     | Version:  2412                                  |
|   \\  /    A nd           | Website:  www.openfoam.com                      |
|    \\/     M anipulation  |                                                 |
\*---------------------------------------------------------------------------*/
FoamFile
{
    version     2.0;
    format      ascii;
    arch        "LSB;label=32;scalar=64";
    class       surfaceScalarField;
    location    "7.4";
    object      phi;
}
// * * * * * * * * * * * * * * * * * * * * * * * * * * * * * * * * * * * * * //

dimensions      [0 3 -1 0 0 0 0];

oriented        oriented;

internalField   nonuniform List<scalar> 
43700
(
1.85393e-07
1.85393e-07
5.49793e-07
-2.25281e-07
-2.25281e-07
1.37278e-07
1.64627e-07
5.93844e-07
-2.00972e-07
9.09885e-08
1.5121e-07
6.2516e-07
-1.90649e-07
4.5173e-08
1.42247e-07
6.45284e-07
-1.82004e-07
-1.13402e-16
1.37931e-07
6.55181e-07
-1.7801e-07
-4.5173e-08
1.37931e-07
6.55181e-07
-1.7801e-07
-9.09885e-08
1.42247e-07
6.45284e-07
-1.82004e-07
-1.37278e-07
1.5121e-07
6.2516e-07
-1.90649e-07
-1.85393e-07
1.64627e-07
5.93844e-07
-2.00972e-07
1.85393e-07
5.49793e-07
-2.25281e-07
-2.25281e-07
1.64627e-07
1.37278e-07
5.93844e-07
-2.00972e-07
1.22549e-07
1.22549e-07
6.29999e-07
8.07928e-08
1.11327e-07
6.55329e-07
4.00215e-08
1.03815e-07
6.717e-07
-1.69275e-16
1.00133e-07
6.79791e-07
-4.00215e-08
1.00133e-07
6.79791e-07
-8.07928e-08
1.03815e-07
6.717e-07
-1.22549e-07
1.11327e-07
6.55329e-07
-1.64627e-07
1.22549e-07
6.29999e-07
1.37278e-07
5.93844e-07
-2.00972e-07
1.5121e-07
9.09885e-08
6.2516e-07
-1.90649e-07
1.11327e-07
8.07928e-08
6.55329e-07
7.29249e-08
7.29249e-08
6.76677e-07
3.60172e-08
6.76441e-08
6.90641e-07
6.44494e-17
6.50394e-08
6.97589e-07
-3.60172e-08
6.50394e-08
6.97589e-07
-7.29249e-08
6.76441e-08
6.90641e-07
-1.11327e-07
7.29249e-08
6.76677e-07
-1.5121e-07
8.07928e-08
6.55329e-07
9.09885e-08
6.2516e-07
-1.90649e-07
1.42247e-07
4.5173e-08
6.45284e-07
-1.82004e-07
1.03815e-07
4.00215e-08
6.717e-07
6.76441e-08
3.60172e-08
6.90641e-07
3.33156e-08
3.33156e-08
7.0316e-07
-1.2248e-16
3.19779e-08
7.09419e-07
-3.33156e-08
3.19779e-08
7.09419e-07
-6.76441e-08
3.33156e-08
7.0316e-07
-1.03815e-07
3.60172e-08
6.90641e-07
-1.42247e-07
4.00215e-08
6.717e-07
4.5173e-08
6.45284e-07
-1.82004e-07
1.37931e-07
2.96944e-17
6.55181e-07
-1.7801e-07
1.00133e-07
-1.46336e-16
6.79791e-07
6.50394e-08
-2.3661e-16
6.97589e-07
3.19779e-08
-1.81806e-16
7.09419e-07
-1.52355e-16
-1.11573e-16
7.15348e-07
-3.19779e-08
-3.1317e-16
7.15348e-07
-6.50394e-08
-2.23322e-16
7.09419e-07
-1.00133e-07
-5.37404e-17
6.97589e-07
-1.37931e-07
9.64913e-17
6.79791e-07
2.60722e-16
6.55181e-07
-1.7801e-07
1.37931e-07
-4.5173e-08
6.55181e-07
-1.7801e-07
1.00133e-07
-4.00215e-08
6.79791e-07
6.50394e-08
-3.60172e-08
6.97589e-07
3.19779e-08
-3.33156e-08
7.09419e-07
-2.91629e-16
-3.19779e-08
7.15348e-07
-3.19779e-08
-3.19779e-08
7.15348e-07
-6.50394e-08
-3.33156e-08
7.09419e-07
-1.00133e-07
-3.60172e-08
6.97589e-07
-1.37931e-07
-4.00215e-08
6.79791e-07
-4.5173e-08
6.55181e-07
-1.7801e-07
1.42247e-07
-9.09885e-08
6.45284e-07
-1.82004e-07
1.03815e-07
-8.07928e-08
6.717e-07
6.76441e-08
-7.29249e-08
6.90641e-07
3.33156e-08
-6.76441e-08
7.0316e-07
-4.19988e-17
-6.50394e-08
7.09419e-07
-3.33156e-08
-6.50394e-08
7.09419e-07
-6.76441e-08
-6.76441e-08
7.0316e-07
-1.03815e-07
-7.29249e-08
6.90641e-07
-1.42247e-07
-8.07928e-08
6.717e-07
-9.09885e-08
6.45284e-07
-1.82004e-07
1.5121e-07
-1.37278e-07
6.2516e-07
-1.90649e-07
1.11327e-07
-1.22549e-07
6.55329e-07
7.29249e-08
-1.11327e-07
6.76677e-07
3.60172e-08
-1.03815e-07
6.90641e-07
-1.42531e-16
-1.00133e-07
6.97589e-07
-3.60172e-08
-1.00133e-07
6.97589e-07
-7.29249e-08
-1.03815e-07
6.90641e-07
-1.11327e-07
-1.11327e-07
6.76677e-07
-1.5121e-07
-1.22549e-07
6.55329e-07
-1.37278e-07
6.2516e-07
-1.90649e-07
1.64627e-07
-1.85393e-07
5.93844e-07
-2.00972e-07
1.22549e-07
-1.64627e-07
6.29999e-07
8.07928e-08
-1.5121e-07
6.55329e-07
4.00215e-08
-1.42247e-07
6.717e-07
-9.94783e-17
-1.37931e-07
6.79791e-07
-4.00215e-08
-1.37931e-07
6.79791e-07
-8.07928e-08
-1.42247e-07
6.717e-07
-1.22549e-07
-1.5121e-07
6.55329e-07
-1.64627e-07
-1.64627e-07
6.29999e-07
-1.85393e-07
5.93844e-07
-2.00972e-07
1.85393e-07
5.49793e-07
-2.25281e-07
-2.25281e-07
1.37278e-07
5.93844e-07
-2.00972e-07
9.09885e-08
6.2516e-07
-1.90649e-07
4.5173e-08
6.45284e-07
-1.82004e-07
3.36875e-16
6.55181e-07
-1.7801e-07
-4.5173e-08
6.55181e-07
-1.7801e-07
-9.09885e-08
6.45284e-07
-1.82004e-07
-1.37278e-07
6.2516e-07
-1.90649e-07
-1.85393e-07
5.93844e-07
-2.00972e-07
5.49793e-07
-2.25281e-07
-2.25281e-07
1.29216e-07
1.29216e-07
5.86438e-07
-1.47538e-07
-1.47538e-07
1.01794e-07
1.26934e-07
6.42486e-07
-1.48154e-07
6.96008e-08
1.23447e-07
6.81081e-07
-1.47175e-07
3.51572e-08
1.20097e-07
7.04964e-07
-1.45333e-07
-1.13349e-16
1.18331e-07
7.1639e-07
-1.44382e-07
-3.51572e-08
1.18331e-07
7.1639e-07
-1.44382e-07
-6.96008e-08
1.20097e-07
7.04964e-07
-1.45333e-07
-1.01794e-07
1.23447e-07
6.81081e-07
-1.47175e-07
-1.29216e-07
1.26934e-07
6.42486e-07
-1.48154e-07
1.29216e-07
5.86438e-07
-1.47538e-07
-1.47538e-07
1.26934e-07
1.01794e-07
6.42486e-07
-1.48154e-07
9.79504e-08
9.79503e-08
6.87967e-07
6.59712e-08
9.36087e-08
7.17147e-07
3.30384e-08
9.00738e-08
7.34657e-07
2.43488e-16
8.82307e-08
7.4293e-07
-3.30384e-08
8.82307e-08
7.4293e-07
-6.59712e-08
9.00738e-08
7.34657e-07
-9.79504e-08
9.36087e-08
7.17147e-07
-1.26934e-07
9.79504e-08
6.87967e-07
1.01794e-07
6.42486e-07
-1.48154e-07
1.23447e-07
6.96008e-08
6.81081e-07
-1.47175e-07
9.36087e-08
6.59712e-08
7.17147e-07
6.22861e-08
6.22861e-08
7.39322e-07
3.09996e-08
5.95077e-08
7.52494e-07
2.42526e-16
5.80842e-08
7.58735e-07
-3.09996e-08
5.80842e-08
7.58735e-07
-6.22861e-08
5.95077e-08
7.52494e-07
-9.36087e-08
6.22861e-08
7.39322e-07
-1.23447e-07
6.59712e-08
7.17147e-07
6.96008e-08
6.81081e-07
-1.47175e-07
1.20097e-07
3.51572e-08
7.04964e-07
-1.45333e-07
9.00738e-08
3.30384e-08
7.34657e-07
5.95077e-08
3.09996e-08
7.52494e-07
2.95131e-08
2.95131e-08
7.63149e-07
4.59099e-17
2.8759e-08
7.68257e-07
-2.95131e-08
2.8759e-08
7.68257e-07
-5.95077e-08
2.95131e-08
7.63149e-07
-9.00738e-08
3.09996e-08
7.52494e-07
-1.20097e-07
3.30384e-08
7.34657e-07
3.51572e-08
7.04964e-07
-1.45333e-07
1.18331e-07
-5.83498e-16
7.1639e-07
-1.44382e-07
8.82307e-08
2.18249e-17
7.4293e-07
5.80842e-08
-1.14976e-16
7.58735e-07
2.8759e-08
-4.37246e-16
7.68257e-07
6.71018e-17
-2.04034e-19
7.72866e-07
-2.8759e-08
-2.06567e-16
7.72866e-07
-5.80842e-08
-3.90329e-16
7.68257e-07
-8.82307e-08
6.51735e-18
7.58735e-07
-1.18331e-07
2.22323e-16
7.4293e-07
2.76272e-16
7.1639e-07
-1.44382e-07
1.18331e-07
-3.51572e-08
7.1639e-07
-1.44382e-07
8.82307e-08
-3.30384e-08
7.4293e-07
5.80842e-08
-3.09996e-08
7.58735e-07
2.8759e-08
-2.95131e-08
7.68257e-07
-6.74341e-18
-2.8759e-08
7.72866e-07
-2.8759e-08
-2.8759e-08
7.72866e-07
-5.80842e-08
-2.95131e-08
7.68257e-07
-8.82307e-08
-3.09996e-08
7.58735e-07
-1.18331e-07
-3.30384e-08
7.4293e-07
-3.51572e-08
7.1639e-07
-1.44382e-07
1.20097e-07
-6.96008e-08
7.04964e-07
-1.45333e-07
9.00738e-08
-6.59712e-08
7.34657e-07
5.95077e-08
-6.22861e-08
7.52494e-07
2.95131e-08
-5.95077e-08
7.63149e-07
2.08402e-17
-5.80842e-08
7.68257e-07
-2.95131e-08
-5.80842e-08
7.68257e-07
-5.95077e-08
-5.95077e-08
7.63149e-07
-9.00738e-08
-6.22861e-08
7.52494e-07
-1.20097e-07
-6.59712e-08
7.34657e-07
-6.96008e-08
7.04964e-07
-1.45333e-07
1.23447e-07
-1.01794e-07
6.81081e-07
-1.47175e-07
9.36087e-08
-9.79503e-08
7.17147e-07
6.22861e-08
-9.36087e-08
7.39322e-07
3.09996e-08
-9.00738e-08
7.52494e-07
-3.05978e-16
-8.82307e-08
7.58735e-07
-3.09996e-08
-8.82307e-08
7.58735e-07
-6.22861e-08
-9.00738e-08
7.52494e-07
-9.36087e-08
-9.36087e-08
7.39322e-07
-1.23447e-07
-9.79503e-08
7.17147e-07
-1.01794e-07
6.81081e-07
-1.47175e-07
1.26934e-07
-1.29216e-07
6.42486e-07
-1.48154e-07
9.79503e-08
-1.26934e-07
6.87967e-07
6.59712e-08
-1.23447e-07
7.17147e-07
3.30384e-08
-1.20097e-07
7.34657e-07
-1.90216e-16
-1.18331e-07
7.4293e-07
-3.30384e-08
-1.18331e-07
7.4293e-07
-6.59712e-08
-1.20097e-07
7.34657e-07
-9.79503e-08
-1.23447e-07
7.17147e-07
-1.26934e-07
-1.26934e-07
6.87967e-07
-1.29216e-07
6.42486e-07
-1.48154e-07
1.29216e-07
5.86438e-07
-1.47538e-07
-1.47538e-07
1.01794e-07
6.42486e-07
-1.48154e-07
6.96008e-08
6.81081e-07
-1.47175e-07
3.51572e-08
7.04964e-07
-1.45333e-07
8.03268e-16
7.1639e-07
-1.44382e-07
-3.51572e-08
7.1639e-07
-1.44382e-07
-6.96008e-08
7.04964e-07
-1.45333e-07
-1.01794e-07
6.81081e-07
-1.47175e-07
-1.29216e-07
6.42486e-07
-1.48154e-07
5.86438e-07
-1.47538e-07
-1.47538e-07
9.73778e-08
9.73778e-08
5.96567e-07
-1.02442e-07
-1.02442e-07
8.16446e-08
1.02786e-07
6.65264e-07
-1.09832e-07
5.81578e-08
1.04925e-07
7.13124e-07
-1.13482e-07
3.0114e-08
1.05252e-07
7.42823e-07
-1.15068e-07
1.42303e-16
1.05197e-07
7.56993e-07
-1.15686e-07
-3.0114e-08
1.05197e-07
7.56993e-07
-1.15686e-07
-5.81578e-08
1.05252e-07
7.42823e-07
-1.15068e-07
-8.16446e-08
1.04925e-07
7.13124e-07
-1.13482e-07
-9.73777e-08
1.02786e-07
6.65264e-07
-1.09832e-07
9.73778e-08
5.96567e-07
-1.02442e-07
-1.02442e-07
1.02786e-07
8.16446e-08
6.65264e-07
-1.09832e-07
8.46744e-08
8.46744e-08
7.24191e-07
5.96492e-08
8.53189e-08
7.61778e-07
3.06815e-08
8.48853e-08
7.83991e-07
6.46919e-16
8.44752e-08
7.94333e-07
-3.06815e-08
8.44752e-08
7.94333e-07
-5.96492e-08
8.48853e-08
7.83991e-07
-8.46744e-08
8.53189e-08
7.61778e-07
-1.02786e-07
8.46744e-08
7.24191e-07
8.16446e-08
6.65264e-07
-1.09832e-07
1.04925e-07
5.81578e-08
7.13124e-07
-1.13482e-07
8.53189e-08
5.96492e-08
7.61778e-07
5.95581e-08
5.95581e-08
7.90844e-07
3.04916e-08
5.89448e-08
8.07501e-07
2.09527e-16
5.85095e-08
8.15193e-07
-3.04916e-08
5.85095e-08
8.15193e-07
-5.95581e-08
5.89448e-08
8.07501e-07
-8.53189e-08
5.95581e-08
7.90844e-07
-1.04925e-07
5.96492e-08
7.61778e-07
5.81578e-08
7.13124e-07
-1.13482e-07
1.05252e-07
3.0114e-08
7.42823e-07
-1.15068e-07
8.48853e-08
3.06815e-08
7.83991e-07
5.89448e-08
3.04916e-08
8.07501e-07
3.01024e-08
3.01024e-08
8.20834e-07
2.94266e-19
2.98456e-08
8.27024e-07
-3.01024e-08
2.98456e-08
8.27024e-07
-5.89448e-08
3.01024e-08
8.20834e-07
-8.48853e-08
3.04916e-08
8.07501e-07
-1.05252e-07
3.06815e-08
7.83991e-07
3.0114e-08
7.42823e-07
-1.15068e-07
1.05197e-07
1.31725e-16
7.56993e-07
-1.15686e-07
8.44752e-08
1.01852e-15
7.94333e-07
5.85095e-08
2.35857e-16
8.15193e-07
2.98456e-08
-2.78832e-16
8.27024e-07
4.10728e-16
4.26791e-16
8.32558e-07
-2.98456e-08
5.56609e-16
8.32558e-07
-5.85095e-08
1.65059e-16
8.27024e-07
-8.44752e-08
2.39319e-16
8.15193e-07
-1.05197e-07
7.06271e-17
7.94333e-07
-8.14486e-17
7.56993e-07
-1.15686e-07
1.05197e-07
-3.0114e-08
7.56993e-07
-1.15686e-07
8.44752e-08
-3.06815e-08
7.94333e-07
5.85095e-08
-3.04916e-08
8.15193e-07
2.98456e-08
-3.01024e-08
8.27024e-07
6.08072e-16
-2.98456e-08
8.32558e-07
-2.98456e-08
-2.98456e-08
8.32558e-07
-5.85095e-08
-3.01024e-08
8.27024e-07
-8.44752e-08
-3.04916e-08
8.15193e-07
-1.05197e-07
-3.06815e-08
7.94333e-07
-3.0114e-08
7.56993e-07
-1.15686e-07
1.05252e-07
-5.81578e-08
7.42823e-07
-1.15068e-07
8.48853e-08
-5.96492e-08
7.83991e-07
5.89448e-08
-5.95581e-08
8.07501e-07
3.01024e-08
-5.89448e-08
8.20834e-07
8.76646e-16
-5.85095e-08
8.27024e-07
-3.01024e-08
-5.85095e-08
8.27024e-07
-5.89448e-08
-5.89448e-08
8.20834e-07
-8.48853e-08
-5.95581e-08
8.07501e-07
-1.05252e-07
-5.96492e-08
7.83991e-07
-5.81578e-08
7.42823e-07
-1.15068e-07
1.04925e-07
-8.16446e-08
7.13124e-07
-1.13482e-07
8.53189e-08
-8.46744e-08
7.61778e-07
5.95581e-08
-8.53189e-08
7.90844e-07
3.04916e-08
-8.48853e-08
8.07501e-07
3.8037e-16
-8.44752e-08
8.15193e-07
-3.04916e-08
-8.44752e-08
8.15193e-07
-5.95581e-08
-8.48853e-08
8.07501e-07
-8.53189e-08
-8.53189e-08
7.90844e-07
-1.04925e-07
-8.46744e-08
7.61778e-07
-8.16446e-08
7.13124e-07
-1.13482e-07
1.02786e-07
-9.73777e-08
6.65264e-07
-1.09832e-07
8.46744e-08
-1.02786e-07
7.24191e-07
5.96492e-08
-1.04925e-07
7.61778e-07
3.06815e-08
-1.05252e-07
7.83991e-07
-4.18789e-16
-1.05197e-07
7.94333e-07
-3.06815e-08
-1.05197e-07
7.94333e-07
-5.96492e-08
-1.05252e-07
7.83991e-07
-8.46744e-08
-1.04925e-07
7.61778e-07
-1.02786e-07
-1.02786e-07
7.24191e-07
-9.73778e-08
6.65264e-07
-1.09832e-07
9.73778e-08
5.96567e-07
-1.02442e-07
-1.02442e-07
8.16446e-08
6.65264e-07
-1.09832e-07
5.81578e-08
7.13124e-07
-1.13482e-07
3.0114e-08
7.42823e-07
-1.15068e-07
1.46703e-16
7.56993e-07
-1.15686e-07
-3.0114e-08
7.56993e-07
-1.15686e-07
-5.81578e-08
7.42823e-07
-1.15068e-07
-8.16446e-08
7.13124e-07
-1.13482e-07
-9.73778e-08
6.65264e-07
-1.09832e-07
5.96567e-07
-1.02442e-07
-1.02442e-07
4.71253e-08
4.71253e-08
5.95884e-07
-4.67839e-08
-4.67839e-08
4.16696e-08
5.37555e-08
6.70655e-07
-5.36907e-08
3.0778e-08
5.78845e-08
7.23893e-07
-5.77622e-08
1.63048e-08
6.0156e-08
7.57422e-07
-6.02814e-08
3.02997e-16
6.11611e-08
7.73544e-07
-6.14079e-08
-1.63048e-08
6.11611e-08
7.73544e-07
-6.14079e-08
-3.0778e-08
6.0156e-08
7.57422e-07
-6.02814e-08
-4.16695e-08
5.78845e-08
7.23893e-07
-5.77622e-08
-4.71253e-08
5.37555e-08
6.70655e-07
-5.36907e-08
4.71253e-08
5.95884e-07
-4.67839e-08
-4.67839e-08
5.37555e-08
4.16695e-08
6.70655e-07
-5.36907e-08
4.6857e-08
4.6857e-08
7.37988e-07
3.43592e-08
5.00962e-08
7.82064e-07
1.81092e-08
5.18202e-08
8.08577e-07
1.4378e-15
5.25612e-08
8.21042e-07
-1.81092e-08
5.25612e-08
8.21042e-07
-3.43592e-08
5.18202e-08
8.08577e-07
-4.6857e-08
5.00962e-08
7.82064e-07
-5.37555e-08
4.6857e-08
7.37988e-07
4.16695e-08
6.70655e-07
-5.36906e-08
5.78845e-08
3.0778e-08
7.23893e-07
-5.77622e-08
5.00962e-08
3.43592e-08
7.82064e-07
3.65285e-08
3.65285e-08
8.17979e-07
1.91913e-08
3.76625e-08
8.38996e-07
9.74301e-16
3.81392e-08
8.48806e-07
-1.91913e-08
3.81392e-08
8.48806e-07
-3.65285e-08
3.76625e-08
8.38996e-07
-5.00962e-08
3.65285e-08
8.17979e-07
-5.78845e-08
3.43592e-08
7.82064e-07
3.0778e-08
7.23893e-07
-5.77622e-08
6.0156e-08
1.63048e-08
7.57422e-07
-6.02814e-08
5.18202e-08
1.81092e-08
8.08577e-07
3.76625e-08
1.91913e-08
8.38996e-07
1.97549e-08
1.97549e-08
8.56649e-07
8.81703e-16
1.99894e-08
8.64929e-07
-1.97549e-08
1.99894e-08
8.64929e-07
-3.76625e-08
1.97549e-08
8.56649e-07
-5.18202e-08
1.91913e-08
8.38996e-07
-6.0156e-08
1.81092e-08
8.08577e-07
1.63048e-08
7.57422e-07
-6.02814e-08
6.11611e-08
3.58796e-16
7.73544e-07
-6.14079e-08
5.25612e-08
1.56512e-15
8.21042e-07
3.81392e-08
9.22242e-16
8.48806e-07
1.99894e-08
5.71364e-16
8.64929e-07
9.49787e-16
9.56129e-16
8.72536e-07
-1.99894e-08
8.12501e-16
8.72536e-07
-3.81392e-08
1.84374e-16
8.64929e-07
-5.25612e-08
-4.88465e-17
8.48806e-07
-6.11611e-08
-8.17426e-16
8.21042e-07
-6.09951e-16
7.73544e-07
-6.14079e-08
6.11611e-08
-1.63048e-08
7.73544e-07
-6.14079e-08
5.25612e-08
-1.81092e-08
8.21042e-07
3.81392e-08
-1.91913e-08
8.48806e-07
1.99894e-08
-1.97549e-08
8.64929e-07
8.09091e-16
-1.99894e-08
8.72536e-07
-1.99894e-08
-1.99894e-08
8.72536e-07
-3.81392e-08
-1.97549e-08
8.64929e-07
-5.25612e-08
-1.91913e-08
8.48806e-07
-6.11611e-08
-1.81092e-08
8.21042e-07
-1.63048e-08
7.73544e-07
-6.14079e-08
6.0156e-08
-3.0778e-08
7.57422e-07
-6.02814e-08
5.18202e-08
-3.43592e-08
8.08577e-07
3.76625e-08
-3.65285e-08
8.38996e-07
1.97549e-08
-3.76625e-08
8.56649e-07
9.69895e-16
-3.81392e-08
8.64929e-07
-1.97549e-08
-3.81392e-08
8.64929e-07
-3.76625e-08
-3.76625e-08
8.56649e-07
-5.18202e-08
-3.65285e-08
8.38996e-07
-6.0156e-08
-3.43592e-08
8.08577e-07
-3.0778e-08
7.57422e-07
-6.02814e-08
5.78845e-08
-4.16695e-08
7.23893e-07
-5.77622e-08
5.00962e-08
-4.6857e-08
7.82064e-07
3.65285e-08
-5.00962e-08
8.17979e-07
1.91913e-08
-5.18202e-08
8.38996e-07
5.12496e-16
-5.25612e-08
8.48806e-07
-1.91913e-08
-5.25612e-08
8.48806e-07
-3.65285e-08
-5.18202e-08
8.38996e-07
-5.00962e-08
-5.00962e-08
8.17979e-07
-5.78845e-08
-4.6857e-08
7.82064e-07
-4.16696e-08
7.23893e-07
-5.77622e-08
5.37555e-08
-4.71253e-08
6.70655e-07
-5.36906e-08
4.6857e-08
-5.37555e-08
7.37988e-07
3.43592e-08
-5.78845e-08
7.82064e-07
1.81092e-08
-6.0156e-08
8.08577e-07
-7.83336e-16
-6.11611e-08
8.21042e-07
-1.81092e-08
-6.11611e-08
8.21042e-07
-3.43592e-08
-6.0156e-08
8.08577e-07
-4.6857e-08
-5.78845e-08
7.82064e-07
-5.37555e-08
-5.37555e-08
7.37988e-07
-4.71253e-08
6.70655e-07
-5.36907e-08
4.71253e-08
5.95884e-07
-4.67839e-08
-4.67839e-08
4.16696e-08
6.70655e-07
-5.36906e-08
3.0778e-08
7.23893e-07
-5.77622e-08
1.63048e-08
7.57422e-07
-6.02814e-08
-2.3967e-16
7.73544e-07
-6.14079e-08
-1.63048e-08
7.73544e-07
-6.14079e-08
-3.0778e-08
7.57422e-07
-6.02814e-08
-4.16696e-08
7.23893e-07
-5.77622e-08
-4.71253e-08
6.70655e-07
-5.36907e-08
5.95884e-07
-4.67839e-08
-4.67839e-08
2.27494e-08
2.27493e-08
5.93435e-07
-2.15249e-08
-2.15249e-08
2.07704e-08
2.69429e-08
6.71004e-07
-2.53131e-08
1.57277e-08
2.99062e-08
7.26966e-07
-2.79363e-08
8.46032e-09
3.17468e-08
7.62591e-07
-2.96484e-08
5.12823e-16
3.261e-08
7.79836e-07
-3.04409e-08
-8.46032e-09
3.261e-08
7.79836e-07
-3.04409e-08
-1.57277e-08
3.17468e-08
7.62591e-07
-2.96484e-08
-2.07704e-08
2.99062e-08
7.26966e-07
-2.79363e-08
-2.27493e-08
2.69429e-08
6.71004e-07
-2.53131e-08
2.27494e-08
5.93435e-07
-2.15249e-08
-2.15249e-08
2.69429e-08
2.07704e-08
6.71004e-07
-2.53131e-08
2.45198e-08
2.45198e-08
7.42834e-07
1.85236e-08
2.71744e-08
7.90792e-07
9.9396e-09
2.87853e-08
8.20123e-07
1.09632e-15
2.95354e-08
8.34057e-07
-9.9396e-09
2.95354e-08
8.34057e-07
-1.85236e-08
2.87853e-08
8.20123e-07
-2.45198e-08
2.71744e-08
7.90792e-07
-2.69429e-08
2.45198e-08
7.42834e-07
2.07704e-08
6.71004e-07
-2.53131e-08
2.99062e-08
1.57277e-08
7.26966e-07
-2.79363e-08
2.71744e-08
1.85236e-08
7.90792e-07
2.04834e-08
2.04834e-08
8.31361e-07
1.09704e-08
2.16551e-08
8.55639e-07
6.52303e-16
2.21937e-08
8.67118e-07
-1.09703e-08
2.21937e-08
8.67118e-07
-2.04834e-08
2.16551e-08
8.55639e-07
-2.71744e-08
2.04834e-08
8.31361e-07
-2.99062e-08
1.85236e-08
7.90792e-07
1.57277e-08
7.26966e-07
-2.79363e-08
3.17468e-08
8.46032e-09
7.62591e-07
-2.96484e-08
2.87853e-08
9.9396e-09
8.20123e-07
2.16551e-08
1.09704e-08
8.55639e-07
1.15832e-08
1.15832e-08
8.76793e-07
6.09089e-16
1.18628e-08
8.86843e-07
-1.15832e-08
1.18628e-08
8.86843e-07
-2.16551e-08
1.15832e-08
8.76793e-07
-2.87853e-08
1.09704e-08
8.55639e-07
-3.17468e-08
9.9396e-09
8.20123e-07
8.46032e-09
7.62591e-07
-2.96484e-08
3.261e-08
1.03686e-15
7.79836e-07
-3.04409e-08
2.95354e-08
1.55909e-15
8.34057e-07
2.21937e-08
1.0702e-15
8.67118e-07
1.18628e-08
6.06666e-16
8.86843e-07
7.46974e-16
7.70469e-16
8.96262e-07
-1.18628e-08
1.09521e-15
8.96262e-07
-2.21937e-08
1.099e-15
8.86843e-07
-2.95354e-08
7.47297e-16
8.67118e-07
-3.261e-08
-1.65499e-16
8.34057e-07
-5.02524e-16
7.79836e-07
-3.04409e-08
3.261e-08
-8.46032e-09
7.79836e-07
-3.04409e-08
2.95354e-08
-9.9396e-09
8.34057e-07
2.21937e-08
-1.09703e-08
8.67118e-07
1.18628e-08
-1.15832e-08
8.86843e-07
1.0516e-15
-1.18628e-08
8.96262e-07
-1.18628e-08
-1.18628e-08
8.96262e-07
-2.21937e-08
-1.15832e-08
8.86843e-07
-2.95354e-08
-1.09703e-08
8.67118e-07
-3.261e-08
-9.9396e-09
8.34057e-07
-8.46033e-09
7.79836e-07
-3.04409e-08
3.17468e-08
-1.57277e-08
7.62591e-07
-2.96484e-08
2.87853e-08
-1.85236e-08
8.20123e-07
2.16551e-08
-2.04834e-08
8.55639e-07
1.15832e-08
-2.16551e-08
8.76793e-07
1.40966e-15
-2.21937e-08
8.86843e-07
-1.15832e-08
-2.21937e-08
8.86843e-07
-2.16551e-08
-2.16551e-08
8.76793e-07
-2.87853e-08
-2.04834e-08
8.55639e-07
-3.17468e-08
-1.85236e-08
8.20123e-07
-1.57277e-08
7.62591e-07
-2.96484e-08
2.99062e-08
-2.07704e-08
7.26966e-07
-2.79363e-08
2.71744e-08
-2.45198e-08
7.90792e-07
2.04834e-08
-2.71744e-08
8.31361e-07
1.09704e-08
-2.87853e-08
8.55639e-07
9.87175e-16
-2.95354e-08
8.67118e-07
-1.09704e-08
-2.95354e-08
8.67118e-07
-2.04834e-08
-2.87853e-08
8.55639e-07
-2.71744e-08
-2.71744e-08
8.31361e-07
-2.99062e-08
-2.45198e-08
7.90792e-07
-2.07704e-08
7.26966e-07
-2.79363e-08
2.69429e-08
-2.27493e-08
6.71004e-07
-2.53131e-08
2.45198e-08
-2.69429e-08
7.42834e-07
1.85236e-08
-2.99062e-08
7.90792e-07
9.9396e-09
-3.17468e-08
8.20123e-07
-3.06445e-16
-3.261e-08
8.34057e-07
-9.9396e-09
-3.261e-08
8.34057e-07
-1.85236e-08
-3.17468e-08
8.20123e-07
-2.45198e-08
-2.99062e-08
7.90792e-07
-2.69429e-08
-2.69429e-08
7.42834e-07
-2.27494e-08
6.71004e-07
-2.53131e-08
2.27494e-08
5.93435e-07
-2.15249e-08
-2.15249e-08
2.07704e-08
6.71004e-07
-2.53131e-08
1.57277e-08
7.26966e-07
-2.79363e-08
8.46032e-09
7.62591e-07
-2.96484e-08
-1.36333e-16
7.79836e-07
-3.04409e-08
-8.46032e-09
7.79836e-07
-3.04409e-08
-1.57277e-08
7.62591e-07
-2.96484e-08
-2.07704e-08
7.26966e-07
-2.79363e-08
-2.27494e-08
6.71004e-07
-2.53131e-08
5.93435e-07
-2.15249e-08
-2.15249e-08
8.87941e-09
8.87941e-09
5.91277e-07
-7.80025e-09
-7.80025e-09
8.57858e-09
1.12984e-08
6.69738e-07
-9.73097e-09
6.75633e-09
1.31778e-08
7.26812e-07
-1.1201e-08
3.72049e-09
1.44414e-08
7.63413e-07
-1.22276e-08
2.73119e-16
1.50596e-08
7.81218e-07
-1.27211e-08
-3.72049e-09
1.50596e-08
7.81218e-07
-1.27211e-08
-6.75633e-09
1.44414e-08
7.63413e-07
-1.22276e-08
-8.57858e-09
1.31778e-08
7.26812e-07
-1.1201e-08
-8.87941e-09
1.12984e-08
6.69738e-07
-9.73097e-09
8.87941e-09
5.91277e-07
-7.80024e-09
-7.80024e-09
1.12984e-08
8.57858e-09
6.69738e-07
-9.73097e-09
1.09489e-08
1.09489e-08
7.43533e-07
8.62457e-09
1.279e-08
7.93505e-07
4.74108e-09
1.39976e-08
8.2445e-07
1.19321e-15
1.45854e-08
8.39272e-07
-4.74107e-09
1.45854e-08
8.39272e-07
-8.62456e-09
1.39976e-08
8.2445e-07
-1.09489e-08
1.279e-08
7.93505e-07
-1.12984e-08
1.09489e-08
7.43533e-07
8.57858e-09
6.69738e-07
-9.73097e-09
1.31778e-08
6.75633e-09
7.26812e-07
-1.1201e-08
1.279e-08
8.62457e-09
7.93505e-07
1.00615e-08
1.00615e-08
8.36818e-07
5.51934e-09
1.09869e-08
8.63192e-07
1.00991e-15
1.1432e-08
8.75791e-07
-5.51934e-09
1.1432e-08
8.75791e-07
-1.00615e-08
1.09869e-08
8.63192e-07
-1.279e-08
1.00615e-08
8.36818e-07
-1.31778e-08
8.62456e-09
7.93505e-07
6.75633e-09
7.26812e-07
-1.1201e-08
1.44414e-08
3.72049e-09
7.63413e-07
-1.22276e-08
1.39976e-08
4.74108e-09
8.2445e-07
1.09869e-08
5.51934e-09
8.63192e-07
6.01603e-09
6.01603e-09
8.86734e-07
9.24782e-16
6.25303e-09
8.98038e-07
-6.01603e-09
6.25303e-09
8.98038e-07
-1.09869e-08
6.01603e-09
8.86734e-07
-1.39976e-08
5.51934e-09
8.63192e-07
-1.44414e-08
4.74107e-09
8.2445e-07
3.72049e-09
7.63413e-07
-1.22276e-08
1.50596e-08
3.80817e-16
7.81218e-07
-1.27211e-08
1.45854e-08
8.8529e-16
8.39272e-07
1.1432e-08
7.17924e-16
8.75791e-07
6.25303e-09
6.73597e-16
8.98038e-07
8.60774e-16
7.94789e-16
9.08768e-07
-6.25303e-09
7.66959e-16
9.08768e-07
-1.1432e-08
7.52564e-16
8.98038e-07
-1.45854e-08
3.57476e-16
8.75791e-07
-1.50596e-08
-1.18819e-16
8.39272e-07
-1.64854e-17
7.81218e-07
-1.27211e-08
1.50596e-08
-3.72049e-09
7.81218e-07
-1.27211e-08
1.45854e-08
-4.74107e-09
8.39272e-07
1.1432e-08
-5.51934e-09
8.75791e-07
6.25303e-09
-6.01603e-09
8.98038e-07
8.49207e-16
-6.25303e-09
9.08768e-07
-6.25303e-09
-6.25303e-09
9.08768e-07
-1.1432e-08
-6.01603e-09
8.98038e-07
-1.45854e-08
-5.51934e-09
8.75791e-07
-1.50596e-08
-4.74107e-09
8.39272e-07
-3.72049e-09
7.81218e-07
-1.27211e-08
1.44414e-08
-6.75633e-09
7.63413e-07
-1.22276e-08
1.39976e-08
-8.62456e-09
8.2445e-07
1.09869e-08
-1.00615e-08
8.63192e-07
6.01603e-09
-1.09869e-08
8.86734e-07
9.54077e-16
-1.1432e-08
8.98038e-07
-6.01603e-09
-1.1432e-08
8.98038e-07
-1.09869e-08
-1.09869e-08
8.86734e-07
-1.39976e-08
-1.00615e-08
8.63192e-07
-1.44414e-08
-8.62456e-09
8.2445e-07
-6.75633e-09
7.63413e-07
-1.22276e-08
1.31778e-08
-8.57858e-09
7.26812e-07
-1.1201e-08
1.279e-08
-1.09489e-08
7.93505e-07
1.00615e-08
-1.279e-08
8.36818e-07
5.51934e-09
-1.39976e-08
8.63192e-07
5.62293e-16
-1.45854e-08
8.75791e-07
-5.51934e-09
-1.45854e-08
8.75791e-07
-1.00615e-08
-1.39976e-08
8.63192e-07
-1.279e-08
-1.279e-08
8.36818e-07
-1.31778e-08
-1.09489e-08
7.93505e-07
-8.57858e-09
7.26812e-07
-1.1201e-08
1.12984e-08
-8.87941e-09
6.69738e-07
-9.73097e-09
1.09489e-08
-1.12984e-08
7.43533e-07
8.62456e-09
-1.31778e-08
7.93505e-07
4.74107e-09
-1.44414e-08
8.2445e-07
-3.57359e-16
-1.50596e-08
8.39272e-07
-4.74107e-09
-1.50596e-08
8.39272e-07
-8.62456e-09
-1.44414e-08
8.2445e-07
-1.09489e-08
-1.31778e-08
7.93505e-07
-1.12984e-08
-1.12984e-08
7.43533e-07
-8.87941e-09
6.69738e-07
-9.73097e-09
8.87941e-09
5.91277e-07
-7.80024e-09
-7.80024e-09
8.57858e-09
6.69738e-07
-9.73097e-09
6.75633e-09
7.26812e-07
-1.1201e-08
3.72049e-09
7.63413e-07
-1.22276e-08
-2.2042e-17
7.81218e-07
-1.27211e-08
-3.72049e-09
7.81218e-07
-1.27211e-08
-6.75633e-09
7.63413e-07
-1.22276e-08
-8.57858e-09
7.26812e-07
-1.1201e-08
-8.87941e-09
6.69738e-07
-9.73097e-09
5.91277e-07
-7.80024e-09
-7.80025e-09
2.85771e-09
2.85771e-09
5.90134e-07
-2.28621e-09
-2.28621e-09
2.95477e-09
3.97004e-09
6.68744e-07
-3.07296e-09
2.43357e-09
4.91079e-09
7.26147e-07
-3.72454e-09
1.37554e-09
5.58637e-09
7.63097e-07
-4.21249e-09
5.39438e-16
5.92766e-09
7.81119e-07
-4.45371e-09
-1.37554e-09
5.92766e-09
7.81119e-07
-4.45371e-09
-2.43357e-09
5.58637e-09
7.63097e-07
-4.21249e-09
-2.95476e-09
4.91079e-09
7.26147e-07
-3.72454e-09
-2.85771e-09
3.97004e-09
6.68744e-07
-3.07296e-09
2.85771e-09
5.90134e-07
-2.28621e-09
-2.28621e-09
3.97004e-09
2.95476e-09
6.68744e-07
-3.07296e-09
4.13852e-09
4.13852e-09
7.43196e-07
3.41558e-09
5.13559e-09
7.94003e-07
1.92745e-09
5.83137e-09
8.25693e-07
7.92044e-16
6.18111e-09
8.40946e-07
-1.92745e-09
6.18111e-09
8.40946e-07
-3.41558e-09
5.83137e-09
8.25693e-07
-4.13852e-09
5.13559e-09
7.94003e-07
-3.97004e-09
4.13852e-09
7.43196e-07
2.95476e-09
6.68744e-07
-3.07296e-09
4.91078e-09
2.43357e-09
7.26147e-07
-3.72454e-09
5.13559e-09
3.41558e-09
7.94003e-07
4.23112e-09
4.23112e-09
8.38627e-07
2.38038e-09
4.78812e-09
8.66086e-07
6.98699e-16
5.06483e-09
8.79287e-07
-2.38038e-09
5.06483e-09
8.79287e-07
-4.23112e-09
4.78812e-09
8.66086e-07
-5.13559e-09
4.23112e-09
8.38627e-07
-4.91079e-09
3.41558e-09
7.94003e-07
2.43357e-09
7.26147e-07
-3.72454e-09
5.58637e-09
1.37554e-09
7.63097e-07
-4.21249e-09
5.83137e-09
1.92745e-09
8.25693e-07
4.78812e-09
2.38038e-09
8.66086e-07
2.68613e-09
2.68613e-09
8.90938e-07
7.12347e-16
2.83682e-09
9.02952e-07
-2.68612e-09
2.83682e-09
9.02952e-07
-4.78812e-09
2.68613e-09
8.90938e-07
-5.83137e-09
2.38038e-09
8.66086e-07
-5.58637e-09
1.92745e-09
8.25693e-07
1.37554e-09
7.63097e-07
-4.21249e-09
5.92766e-09
2.85837e-16
7.81119e-07
-4.45371e-09
6.18111e-09
3.51443e-16
8.40946e-07
5.06483e-09
5.38064e-16
8.79287e-07
2.83682e-09
6.05805e-16
9.02952e-07
6.15167e-16
7.20764e-16
9.14442e-07
-2.83682e-09
7.64946e-16
9.14442e-07
-5.06483e-09
8.69762e-16
9.02952e-07
-6.18111e-09
3.55446e-16
8.79287e-07
-5.92766e-09
4.50493e-17
8.40946e-07
9.6144e-17
7.81119e-07
-4.45371e-09
5.92766e-09
-1.37554e-09
7.81119e-07
-4.45371e-09
6.18111e-09
-1.92745e-09
8.40946e-07
5.06483e-09
-2.38038e-09
8.79287e-07
2.83682e-09
-2.68612e-09
9.02952e-07
6.37077e-16
-2.83682e-09
9.14442e-07
-2.83682e-09
-2.83682e-09
9.14442e-07
-5.06483e-09
-2.68612e-09
9.02952e-07
-6.1811e-09
-2.38038e-09
8.79287e-07
-5.92766e-09
-1.92745e-09
8.40946e-07
-1.37554e-09
7.81119e-07
-4.45371e-09
5.58637e-09
-2.43357e-09
7.63097e-07
-4.21249e-09
5.83137e-09
-3.41558e-09
8.25693e-07
4.78812e-09
-4.23112e-09
8.66086e-07
2.68613e-09
-4.78812e-09
8.90938e-07
5.98661e-16
-5.06483e-09
9.02952e-07
-2.68612e-09
-5.06483e-09
9.02952e-07
-4.78812e-09
-4.78812e-09
8.90938e-07
-5.83137e-09
-4.23112e-09
8.66086e-07
-5.58637e-09
-3.41558e-09
8.25693e-07
-2.43357e-09
7.63097e-07
-4.21249e-09
4.91078e-09
-2.95476e-09
7.26147e-07
-3.72454e-09
5.13559e-09
-4.13852e-09
7.94003e-07
4.23112e-09
-5.13559e-09
8.38627e-07
2.38038e-09
-5.83136e-09
8.66086e-07
1.28097e-16
-6.1811e-09
8.79287e-07
-2.38038e-09
-6.1811e-09
8.79287e-07
-4.23112e-09
-5.83137e-09
8.66086e-07
-5.13559e-09
-5.13559e-09
8.38627e-07
-4.91079e-09
-4.13852e-09
7.94003e-07
-2.95476e-09
7.26147e-07
-3.72454e-09
3.97004e-09
-2.85771e-09
6.68744e-07
-3.07296e-09
4.13852e-09
-3.97004e-09
7.43196e-07
3.41558e-09
-4.91079e-09
7.94003e-07
1.92745e-09
-5.58637e-09
8.25693e-07
-4.75427e-16
-5.92766e-09
8.40946e-07
-1.92745e-09
-5.92766e-09
8.40946e-07
-3.41558e-09
-5.58637e-09
8.25693e-07
-4.13852e-09
-4.91079e-09
7.94003e-07
-3.97004e-09
-3.97004e-09
7.43196e-07
-2.85771e-09
6.68744e-07
-3.07296e-09
2.85771e-09
5.90134e-07
-2.28621e-09
-2.28621e-09
2.95476e-09
6.68744e-07
-3.07297e-09
2.43356e-09
7.26147e-07
-3.72454e-09
1.37554e-09
7.63097e-07
-4.21249e-09
-3.44531e-16
7.81119e-07
-4.45371e-09
-1.37554e-09
7.81119e-07
-4.45371e-09
-2.43357e-09
7.63097e-07
-4.21249e-09
-2.95476e-09
7.26147e-07
-3.72454e-09
-2.85771e-09
6.68744e-07
-3.07296e-09
5.90134e-07
-2.28621e-09
-2.28621e-09
7.72716e-10
7.72715e-10
5.89633e-07
-5.22498e-10
-5.22498e-10
8.8108e-10
1.21193e-09
6.68224e-07
-8.01259e-10
7.6966e-10
1.60886e-09
7.25701e-07
-1.05156e-09
4.49125e-10
1.9084e-09
7.62757e-07
-1.24764e-09
3.01152e-16
2.0632e-09
7.80852e-07
-1.34686e-09
-4.49124e-10
2.0632e-09
7.80852e-07
-1.34686e-09
-7.69659e-10
1.9084e-09
7.62757e-07
-1.24764e-09
-8.81079e-10
1.60885e-09
7.25701e-07
-1.05156e-09
-7.72715e-10
1.21193e-09
6.68224e-07
-8.01259e-10
7.72715e-10
5.89633e-07
-5.22498e-10
-5.22497e-10
1.21193e-09
8.8108e-10
6.68224e-07
-8.01259e-10
1.38228e-09
1.38228e-09
7.42855e-07
1.20194e-09
1.83032e-09
7.93962e-07
6.97424e-10
2.1577e-09
8.25948e-07
5.99412e-16
2.32603e-09
8.4138e-07
-6.97423e-10
2.32603e-09
8.4138e-07
-1.20194e-09
2.1577e-09
8.25948e-07
-1.38228e-09
1.83032e-09
7.93962e-07
-1.21193e-09
1.38228e-09
7.42855e-07
8.8108e-10
6.68224e-07
-8.01258e-10
1.60886e-09
7.6966e-10
7.25701e-07
-1.05156e-09
1.83032e-09
1.20194e-09
7.93962e-07
1.58229e-09
1.58229e-09
8.39123e-07
9.12894e-10
1.85374e-09
8.67059e-07
5.56662e-16
1.99167e-09
8.80535e-07
-9.12893e-10
1.99167e-09
8.80535e-07
-1.58229e-09
1.85374e-09
8.67059e-07
-1.83032e-09
1.58229e-09
8.39123e-07
-1.60886e-09
1.20194e-09
7.93962e-07
7.6966e-10
7.25701e-07
-1.05156e-09
1.9084e-09
4.49125e-10
7.62757e-07
-1.24764e-09
2.15771e-09
6.97425e-10
8.25948e-07
1.85374e-09
9.12894e-10
8.67059e-07
1.0647e-09
1.0647e-09
8.92516e-07
5.04649e-16
1.14124e-09
9.04867e-07
-1.0647e-09
1.14124e-09
9.04867e-07
-1.85374e-09