/*--------------------------------*- C++ -*----------------------------------*\
| =========                 |                                                 |
| \\      /  F ield         | OpenFOAM: The Open Source CFD Toolbox           |
|  \\    /   O peration     | Version:  2412                                  |
|   \\  /    A nd           | Website:  www.openfoam.com                      |
|    \\/     M anipulation  |                                                 |
\*---------------------------------------------------------------------------*/
FoamFile
{
    version     2.0;
    format      ascii;
    arch        "LSB;label=32;scalar=64";
    class       volVectorField;
    location    "7.4";
    object      U;
}
// * * * * * * * * * * * * * * * * * * * * * * * * * * * * * * * * * * * * * //

dimensions      [0 1 -1 0 0 0 0];

internalField   nonuniform List<vector> 
15000
(
(0.00121481 0.00121481 0.0103994)
(0.000899011 0.00113846 0.0103531)
(0.000613586 0.00111277 0.0103136)
(0.000360574 0.00108706 0.0102875)
(0.000118487 0.00107519 0.0102753)
(-0.000118487 0.00107519 0.0102753)
(-0.000360574 0.00108706 0.0102875)
(-0.000613586 0.00111277 0.0103136)
(-0.000899011 0.00113846 0.0103531)
(-0.00121481 0.00121481 0.0103994)
(0.00113846 0.000899011 0.0103531)
(0.000848783 0.000848783 0.0102919)
(0.000581657 0.000812246 0.0102512)
(0.000339479 0.000786053 0.0102286)
(0.000111416 0.000773279 0.0102188)
(-0.000111416 0.000773279 0.0102188)
(-0.000339479 0.000786053 0.0102286)
(-0.000581657 0.000812246 0.0102512)
(-0.000848783 0.000848783 0.0102919)
(-0.00113846 0.000899011 0.0103531)
(0.00111277 0.000613586 0.0103136)
(0.000812246 0.000581657 0.0102512)
(0.00055228 0.00055228 0.0102163)
(0.000320398 0.00053077 0.0101983)
(0.000104905 0.000519892 0.0101907)
(-0.000104905 0.000519892 0.0101907)
(-0.000320398 0.00053077 0.0101983)
(-0.00055228 0.00055228 0.0102163)
(-0.000812246 0.000581657 0.0102512)
(-0.00111277 0.000613586 0.0103136)
(0.00108706 0.000360574 0.0102875)
(0.000786053 0.000339479 0.0102286)
(0.00053077 0.000320398 0.0101983)
(0.000306399 0.000306399 0.010183)
(0.000100101 0.000299239 0.0101762)
(-0.000100101 0.000299239 0.0101762)
(-0.000306399 0.000306399 0.010183)
(-0.00053077 0.000320398 0.0101983)
(-0.000786053 0.000339479 0.0102286)
(-0.00108706 0.000360574 0.0102875)
(0.00107519 0.000118487 0.0102753)
(0.000773279 0.000111416 0.0102188)
(0.000519892 0.000104905 0.0101907)
(0.000299239 0.000100101 0.0101762)
(9.76337e-05 9.76337e-05 0.0101696)
(-9.76337e-05 9.76337e-05 0.0101696)
(-0.000299239 0.000100101 0.0101762)
(-0.000519892 0.000104905 0.0101907)
(-0.000773279 0.000111416 0.0102188)
(-0.00107519 0.000118487 0.0102753)
(0.00107519 -0.000118487 0.0102753)
(0.000773279 -0.000111416 0.0102188)
(0.000519892 -0.000104905 0.0101907)
(0.000299239 -0.000100101 0.0101762)
(9.76337e-05 -9.76337e-05 0.0101696)
(-9.76337e-05 -9.76337e-05 0.0101696)
(-0.000299239 -0.000100101 0.0101762)
(-0.000519892 -0.000104905 0.0101907)
(-0.000773279 -0.000111416 0.0102188)
(-0.00107519 -0.000118487 0.0102753)
(0.00108706 -0.000360574 0.0102875)
(0.000786053 -0.000339479 0.0102286)
(0.00053077 -0.000320398 0.0101983)
(0.000306399 -0.000306399 0.010183)
(0.000100101 -0.000299239 0.0101762)
(-0.000100101 -0.000299239 0.0101762)
(-0.000306399 -0.000306399 0.010183)
(-0.00053077 -0.000320398 0.0101983)
(-0.000786053 -0.000339479 0.0102286)
(-0.00108706 -0.000360574 0.0102875)
(0.00111277 -0.000613586 0.0103136)
(0.000812246 -0.000581657 0.0102512)
(0.00055228 -0.00055228 0.0102163)
(0.000320398 -0.00053077 0.0101983)
(0.000104905 -0.000519892 0.0101907)
(-0.000104905 -0.000519892 0.0101907)
(-0.000320398 -0.00053077 0.0101983)
(-0.00055228 -0.00055228 0.0102163)
(-0.000812246 -0.000581657 0.0102512)
(-0.00111277 -0.000613586 0.0103136)
(0.00113846 -0.000899011 0.0103531)
(0.000848783 -0.000848783 0.0102919)
(0.000581657 -0.000812246 0.0102512)
(0.000339479 -0.000786053 0.0102286)
(0.000111416 -0.000773279 0.0102188)
(-0.000111416 -0.000773279 0.0102188)
(-0.000339479 -0.000786053 0.0102286)
(-0.000581657 -0.000812246 0.0102512)
(-0.000848783 -0.000848783 0.0102919)
(-0.00113846 -0.000899011 0.0103531)
(0.00121481 -0.00121481 0.0103994)
(0.000899011 -0.00113846 0.0103531)
(0.000613586 -0.00111277 0.0103136)
(0.000360574 -0.00108706 0.0102875)
(0.000118487 -0.00107519 0.0102753)
(-0.000118487 -0.00107519 0.0102753)
(-0.000360574 -0.00108706 0.0102875)
(-0.000613586 -0.00111277 0.0103136)
(-0.000899011 -0.00113846 0.0103531)
(-0.00121481 -0.00121481 0.0103994)
(0.000810362 0.000810362 0.0126678)
(0.00064263 0.000858689 0.0126467)
(0.000458432 0.0008873 0.0125603)
(0.000274461 0.000898685 0.0124745)
(9.09154e-05 0.000903746 0.0124253)
(-9.09154e-05 0.000903746 0.0124253)
(-0.000274461 0.000898685 0.0124745)
(-0.000458432 0.0008873 0.0125603)
(-0.00064263 0.000858689 0.0126467)
(-0.000810362 0.000810362 0.0126678)
(0.000858689 0.00064263 0.0126467)
(0.000667907 0.000667907 0.012494)
(0.000468975 0.000675438 0.0123149)
(0.00027686 0.000674395 0.0121773)
(9.12986e-05 0.000673011 0.0121052)
(-9.12986e-05 0.000673011 0.0121052)
(-0.00027686 0.000674395 0.0121773)
(-0.000468975 0.000675438 0.0123149)
(-0.000667907 0.000667907 0.012494)
(-0.000858689 0.00064263 0.0126467)
(0.0008873 0.000458432 0.0125603)
(0.000675438 0.000468975 0.0123149)
(0.000467761 0.000467761 0.0120853)
(0.000273604 0.000463084 0.0119236)
(8.99122e-05 0.000460099 0.0118421)
(-8.99121e-05 0.000460099 0.0118421)
(-0.000273604 0.000463084 0.0119236)
(-0.000467761 0.000467761 0.0120853)
(-0.000675438 0.000468975 0.0123149)
(-0.0008873 0.000458432 0.0125603)
(0.000898685 0.000274461 0.0124745)
(0.000674395 0.00027686 0.0121773)
(0.000463084 0.000273604 0.0119236)
(0.000269535 0.000269535 0.0117521)
(8.84074e-05 0.000267176 0.0116671)
(-8.84074e-05 0.000267176 0.0116671)
(-0.000269535 0.000269535 0.0117521)
(-0.000463084 0.000273604 0.0119236)
(-0.000674395 0.00027686 0.0121773)
(-0.000898685 0.000274461 0.0124745)
(0.000903746 9.09154e-05 0.0124253)
(0.000673011 9.12986e-05 0.0121052)
(0.000460099 8.99122e-05 0.0118421)
(0.000267176 8.84074e-05 0.0116671)
(8.75568e-05 8.75568e-05 0.0115811)
(-8.75568e-05 8.75568e-05 0.0115811)
(-0.000267176 8.84074e-05 0.0116671)
(-0.000460099 8.99122e-05 0.0118421)
(-0.000673011 9.12986e-05 0.0121052)
(-0.000903746 9.09154e-05 0.0124253)
(0.000903746 -9.09154e-05 0.0124253)
(0.000673011 -9.12986e-05 0.0121052)
(0.000460099 -8.99122e-05 0.0118421)
(0.000267176 -8.84074e-05 0.0116671)
(8.75568e-05 -8.75568e-05 0.0115811)
(-8.75568e-05 -8.75568e-05 0.0115811)
(-0.000267176 -8.84074e-05 0.0116671)
(-0.000460099 -8.99122e-05 0.0118421)
(-0.000673011 -9.12986e-05 0.0121052)
(-0.000903746 -9.09154e-05 0.0124253)
(0.000898685 -0.000274461 0.0124745)
(0.000674395 -0.00027686 0.0121773)
(0.000463084 -0.000273604 0.0119236)
(0.000269535 -0.000269535 0.0117521)
(8.84074e-05 -0.000267176 0.0116671)
(-8.84074e-05 -0.000267176 0.0116671)
(-0.000269535 -0.000269535 0.0117521)
(-0.000463084 -0.000273604 0.0119236)
(-0.000674395 -0.00027686 0.0121773)
(-0.000898685 -0.000274461 0.0124745)
(0.0008873 -0.000458432 0.0125603)
(0.000675438 -0.000468975 0.0123149)
(0.000467761 -0.000467761 0.0120853)
(0.000273604 -0.000463084 0.0119236)
(8.99122e-05 -0.000460099 0.0118421)
(-8.99122e-05 -0.000460099 0.0118421)
(-0.000273604 -0.000463084 0.0119236)
(-0.000467761 -0.000467761 0.0120853)
(-0.000675438 -0.000468975 0.0123149)
(-0.0008873 -0.000458432 0.0125603)
(0.00085869 -0.00064263 0.0126467)
(0.000667907 -0.000667907 0.012494)
(0.000468975 -0.000675438 0.0123149)
(0.00027686 -0.000674395 0.0121773)
(9.12986e-05 -0.000673011 0.0121052)
(-9.12986e-05 -0.000673011 0.0121052)
(-0.00027686 -0.000674395 0.0121773)
(-0.000468975 -0.000675438 0.0123149)
(-0.000667907 -0.000667907 0.012494)
(-0.00085869 -0.00064263 0.0126467)
(0.000810362 -0.000810362 0.0126678)
(0.00064263 -0.000858689 0.0126467)
(0.000458432 -0.0008873 0.0125603)
(0.000274461 -0.000898685 0.0124745)
(9.09154e-05 -0.000903746 0.0124253)
(-9.09154e-05 -0.000903746 0.0124253)
(-0.000274461 -0.000898685 0.0124745)
(-0.000458432 -0.0008873 0.0125603)
(-0.00064263 -0.000858689 0.0126467)
(-0.000810362 -0.000810362 0.0126678)
(0.000600017 0.000600017 0.0125239)
(0.000502686 0.000677618 0.0128125)
(0.000378895 0.000730052 0.0129169)
(0.000234378 0.000760671 0.0129349)
(7.89674e-05 0.000775187 0.0129302)
(-7.89674e-05 0.000775187 0.0129302)
(-0.000234378 0.000760671 0.0129349)
(-0.000378895 0.000730052 0.0129169)
(-0.000502686 0.000677618 0.0128125)
(-0.000600017 0.000600017 0.0125239)
(0.000677618 0.000502686 0.0128125)
(0.000564709 0.000564709 0.0129344)
(0.000418467 0.000601495 0.0128945)
(0.000256084 0.000620666 0.0128202)
(8.59797e-05 0.000629109 0.0127718)
(-8.59797e-05 0.000629109 0.0127718)
(-0.000256084 0.000620666 0.0128202)
(-0.000418467 0.000601495 0.0128945)
(-0.000564709 0.000564709 0.0129344)
(-0.000677618 0.000502686 0.0128125)
(0.000730052 0.000378895 0.0129169)
(0.000601495 0.000418467 0.0128945)
(0.000441027 0.000441027 0.0127563)
(0.000267928 0.000452186 0.0126272)
(8.97191e-05 0.00045687 0.0125554)
(-8.97191e-05 0.00045687 0.0125554)
(-0.000267928 0.000452186 0.0126272)
(-0.000441027 0.000441027 0.0127563)
(-0.000601495 0.000418467 0.0128945)
(-0.000730052 0.000378895 0.0129169)
(0.000760671 0.000234378 0.0129349)
(0.000620666 0.000256084 0.0128202)
(0.000452186 0.000267928 0.0126272)
(0.000273674 0.000273674 0.0124716)
(9.15179e-05 0.000276033 0.0123897)
(-9.15179e-05 0.000276033 0.0123897)
(-0.000273674 0.000273674 0.0124716)
(-0.000452186 0.000267928 0.0126272)
(-0.000620666 0.000256084 0.0128202)
(-0.000760671 0.000234378 0.0129349)
(0.000775187 7.89674e-05 0.0129302)
(0.000629109 8.59797e-05 0.0127718)
(0.00045687 8.97191e-05 0.0125554)
(0.000276033 9.15179e-05 0.0123897)
(9.22489e-05 9.22489e-05 0.0123043)
(-9.22489e-05 9.22489e-05 0.0123043)
(-0.000276033 9.15179e-05 0.0123897)
(-0.00045687 8.97191e-05 0.0125554)
(-0.000629109 8.59797e-05 0.0127718)
(-0.000775187 7.89674e-05 0.0129302)
(0.000775187 -7.89674e-05 0.0129302)
(0.000629109 -8.59797e-05 0.0127718)
(0.00045687 -8.97191e-05 0.0125554)
(0.000276033 -9.15179e-05 0.0123897)
(9.22489e-05 -9.22489e-05 0.0123043)
(-9.22489e-05 -9.22489e-05 0.0123043)
(-0.000276033 -9.15179e-05 0.0123897)
(-0.00045687 -8.97191e-05 0.0125554)
(-0.000629109 -8.59797e-05 0.0127718)
(-0.000775187 -7.89674e-05 0.0129302)
(0.000760671 -0.000234378 0.0129349)
(0.000620666 -0.000256084 0.0128202)
(0.000452186 -0.000267928 0.0126272)
(0.000273674 -0.000273674 0.0124716)
(9.15179e-05 -0.000276033 0.0123897)
(-9.15179e-05 -0.000276033 0.0123897)
(-0.000273674 -0.000273674 0.0124716)
(-0.000452186 -0.000267928 0.0126272)
(-0.000620666 -0.000256084 0.0128202)
(-0.000760671 -0.000234378 0.0129349)
(0.000730052 -0.000378895 0.0129169)
(0.000601495 -0.000418467 0.0128945)
(0.000441027 -0.000441027 0.0127563)
(0.000267928 -0.000452186 0.0126272)
(8.97191e-05 -0.00045687 0.0125554)
(-8.97191e-05 -0.00045687 0.0125554)
(-0.000267928 -0.000452186 0.0126272)
(-0.000441027 -0.000441027 0.0127563)
(-0.000601495 -0.000418467 0.0128945)
(-0.000730052 -0.000378895 0.0129169)
(0.000677618 -0.000502686 0.0128125)
(0.000564709 -0.000564709 0.0129344)
(0.000418467 -0.000601495 0.0128945)
(0.000256084 -0.000620666 0.0128202)
(8.59797e-05 -0.000629109 0.0127718)
(-8.59797e-05 -0.000629109 0.0127718)
(-0.000256084 -0.000620666 0.0128202)
(-0.000418467 -0.000601495 0.0128945)
(-0.000564709 -0.000564709 0.0129344)
(-0.000677618 -0.000502686 0.0128125)
(0.000600017 -0.000600017 0.0125239)
(0.000502686 -0.000677618 0.0128125)
(0.000378895 -0.000730052 0.0129169)
(0.000234378 -0.000760671 0.0129349)
(7.89674e-05 -0.000775187 0.0129302)
(-7.89674e-05 -0.000775187 0.0129302)
(-0.000234378 -0.000760671 0.0129349)
(-0.000378895 -0.000730052 0.0129169)
(-0.000502686 -0.000677618 0.0128125)
(-0.000600017 -0.000600017 0.0125239)
(0.000284154 0.000284154 0.0127471)
(0.000249069 0.000346486 0.0131891)
(0.000197483 0.000391741 0.0134038)
(0.000125635 0.000421845 0.0134895)
(4.29598e-05 0.000436566 0.0135162)
(-4.29598e-05 0.000436566 0.0135162)
(-0.000125635 0.000421845 0.0134895)
(-0.000197483 0.000391741 0.0134038)
(-0.000249069 0.000346486 0.0131891)
(-0.000284154 0.000284154 0.0127471)
(0.000346486 0.000249069 0.0131891)
(0.000305888 0.000305888 0.0134812)
(0.000237992 0.000345815 0.0135461)
(0.000150293 0.000370749 0.0135298)
(5.12596e-05 0.00038276 0.0135066)
(-5.12596e-05 0.00038276 0.0135066)
(-0.000150293 0.000370749 0.0135298)
(-0.000237992 0.000345815 0.0135461)
(-0.000305888 0.000305888 0.0134812)
(-0.000346486 0.000249069 0.0131891)
(0.000391741 0.000197483 0.0134038)
(0.000345815 0.000237992 0.0135461)
(0.000267146 0.000267146 0.0134988)
(0.000167927 0.000285284 0.0134158)
(5.71858e-05 0.000293984 0.0133631)
(-5.71858e-05 0.000293984 0.0133631)
(-0.000167927 0.000285284 0.0134158)
(-0.000267146 0.000267146 0.0134988)
(-0.000345815 0.000237992 0.0135461)
(-0.000391741 0.000197483 0.0134038)
(0.000421845 0.000125635 0.0134895)
(0.000370749 0.000150293 0.0135298)
(0.000285284 0.000167927 0.0134158)
(0.000178925 0.000178925 0.0132981)
(6.08847e-05 0.000184192 0.0132314)
(-6.08847e-05 0.000184192 0.0132314)
(-0.000178925 0.000178925 0.0132981)
(-0.000285284 0.000167927 0.0134158)
(-0.000370749 0.000150293 0.0135298)
(-0.000421845 0.000125635 0.0134895)
(0.000436566 4.29598e-05 0.0135162)
(0.00038276 5.12596e-05 0.0135066)
(0.000293984 5.71858e-05 0.0133631)
(0.000184192 6.08847e-05 0.0132314)
(6.26529e-05 6.26529e-05 0.0131596)
(-6.26528e-05 6.26529e-05 0.0131596)
(-0.000184192 6.08847e-05 0.0132314)
(-0.000293984 5.71858e-05 0.0133631)
(-0.00038276 5.12596e-05 0.0135066)
(-0.000436566 4.29598e-05 0.0135162)
(0.000436566 -4.29598e-05 0.0135162)
(0.00038276 -5.12596e-05 0.0135066)
(0.000293984 -5.71858e-05 0.0133631)
(0.000184192 -6.08847e-05 0.0132314)
(6.26529e-05 -6.26528e-05 0.0131596)
(-6.26529e-05 -6.26528e-05 0.0131596)
(-0.000184192 -6.08847e-05 0.0132314)
(-0.000293984 -5.71858e-05 0.0133631)
(-0.00038276 -5.12596e-05 0.0135066)
(-0.000436566 -4.29598e-05 0.0135162)
(0.000421845 -0.000125635 0.0134895)
(0.000370749 -0.000150293 0.0135298)
(0.000285284 -0.000167927 0.0134158)
(0.000178925 -0.000178925 0.0132981)
(6.08847e-05 -0.000184192 0.0132314)
(-6.08847e-05 -0.000184192 0.0132314)
(-0.000178925 -0.000178925 0.0132981)
(-0.000285284 -0.000167927 0.0134158)
(-0.000370749 -0.000150293 0.0135298)
(-0.000421845 -0.000125635 0.0134895)
(0.000391741 -0.000197483 0.0134038)
(0.000345815 -0.000237992 0.0135461)
(0.000267146 -0.000267146 0.0134988)
(0.000167927 -0.000285284 0.0134158)
(5.71858e-05 -0.000293984 0.0133631)
(-5.71858e-05 -0.000293984 0.0133631)
(-0.000167927 -0.000285284 0.0134158)
(-0.000267146 -0.000267146 0.0134988)
(-0.000345815 -0.000237992 0.0135461)
(-0.000391741 -0.000197483 0.0134038)
(0.000346486 -0.000249069 0.0131891)
(0.000305888 -0.000305888 0.0134812)
(0.000237992 -0.000345815 0.0135461)
(0.000150293 -0.000370749 0.0135298)
(5.12596e-05 -0.00038276 0.0135066)
(-5.12596e-05 -0.00038276 0.0135066)
(-0.000150293 -0.000370749 0.0135298)
(-0.000237992 -0.000345815 0.0135461)
(-0.000305888 -0.000305888 0.0134812)
(-0.000346486 -0.000249069 0.0131891)
(0.000284154 -0.000284154 0.0127471)
(0.000249069 -0.000346486 0.0131891)
(0.000197483 -0.000391741 0.0134038)
(0.000125635 -0.000421845 0.0134895)
(4.29598e-05 -0.000436566 0.0135162)
(-4.29598e-05 -0.000436566 0.0135162)
(-0.000125635 -0.000421845 0.0134895)
(-0.000197483 -0.000391741 0.0134038)
(-0.000249069 -0.000346486 0.0131891)
(-0.000284154 -0.000284154 0.0127471)
(0.000135861 0.000135861 0.0126605)
(0.000122204 0.000170214 0.0131947)
(0.000100434 0.000197515 0.0134849)
(6.5203e-05 0.000216796 0.0136225)
(2.25358e-05 0.000226452 0.0136751)
(-2.25358e-05 0.000226452 0.0136751)
(-6.5203e-05 0.000216796 0.0136225)
(-0.000100434 0.000197515 0.0134849)
(-0.000122204 0.000170214 0.0131947)
(-0.000135861 0.000135861 0.0126605)
(0.000170214 0.000122204 0.0131947)
(0.000157447 0.000157447 0.0136071)
(0.000127359 0.000184412 0.0137612)
(8.23903e-05 0.000202474 0.013803)
(2.84353e-05 0.000211474 0.0138083)
(-2.84353e-05 0.000211474 0.0138083)
(-8.23903e-05 0.000202474 0.013803)
(-0.000127359 0.000184412 0.0137612)
(-0.000157447 0.000157447 0.0136071)
(-0.000170214 0.000122204 0.0131947)
(0.000197515 0.000100434 0.0134849)
(0.000184412 0.000127359 0.0137612)
(0.000148557 0.000148557 0.0138088)
(9.58478e-05 0.000162672 0.0137858)
(3.30497e-05 0.000169678 0.0137621)
(-3.30497e-05 0.000169678 0.0137621)
(-9.58478e-05 0.000162672 0.0137858)
(-0.000148557 0.000148557 0.0138088)
(-0.000184412 0.000127359 0.0137612)
(-0.000197515 0.000100434 0.0134849)
(0.000216796 6.5203e-05 0.0136225)
(0.000202474 8.23903e-05 0.013803)
(0.000162672 9.58478e-05 0.0137858)
(0.000104769 0.000104769 0.0137283)
(3.61009e-05 0.000109174 0.0136904)
(-3.61009e-05 0.000109174 0.0136904)
(-0.000104769 0.000104769 0.0137283)
(-0.000162672 9.58478e-05 0.0137858)
(-0.000202474 8.23903e-05 0.013803)
(-0.000216796 6.5203e-05 0.0136225)
(0.000226452 2.25358e-05 0.0136751)
(0.000211474 2.84353e-05 0.0138083)
(0.000169678 3.30497e-05 0.0137621)
(0.000109174 3.61009e-05 0.0136904)
(3.76027e-05 3.76027e-05 0.0136473)
(-3.76026e-05 3.76027e-05 0.0136473)
(-0.000109174 3.61009e-05 0.0136904)
(-0.000169678 3.30497e-05 0.0137621)
(-0.000211474 2.84353e-05 0.0138083)
(-0.000226452 2.25358e-05 0.0136751)
(0.000226452 -2.25358e-05 0.0136751)
(0.000211474 -2.84353e-05 0.0138083)
(0.000169678 -3.30497e-05 0.0137621)
(0.000109174 -3.61009e-05 0.0136904)
(3.76027e-05 -3.76026e-05 0.0136473)
(-3.76026e-05 -3.76026e-05 0.0136473)
(-0.000109174 -3.61009e-05 0.0136904)
(-0.000169678 -3.30497e-05 0.0137621)
(-0.000211474 -2.84353e-05 0.0138083)
(-0.000226452 -2.25358e-05 0.0136751)
(0.000216796 -6.5203e-05 0.0136225)
(0.000202474 -8.23903e-05 0.013803)
(0.000162672 -9.58478e-05 0.0137858)
(0.000104769 -0.000104769 0.0137283)
(3.61009e-05 -0.000109174 0.0136904)
(-3.61009e-05 -0.000109174 0.0136904)
(-0.000104769 -0.000104769 0.0137283)
(-0.000162672 -9.58478e-05 0.0137858)
(-0.000202474 -8.23903e-05 0.013803)
(-0.000216796 -6.5203e-05 0.0136225)
(0.000197515 -0.000100434 0.0134849)
(0.000184412 -0.000127359 0.0137612)
(0.000148557 -0.000148557 0.0138088)
(9.58478e-05 -0.000162672 0.0137858)
(3.30497e-05 -0.000169678 0.0137621)
(-3.30497e-05 -0.000169678 0.0137621)
(-9.58478e-05 -0.000162672 0.0137858)
(-0.000148557 -0.000148557 0.0138088)
(-0.000184412 -0.000127359 0.0137612)
(-0.000197515 -0.000100434 0.0134849)
(0.000170214 -0.000122204 0.0131947)
(0.000157447 -0.000157447 0.0136071)
(0.000127359 -0.000184412 0.0137612)
(8.23903e-05 -0.000202474 0.013803)
(2.84353e-05 -0.000211474 0.0138083)
(-2.84353e-05 -0.000211474 0.0138083)
(-8.23903e-05 -0.000202474 0.013803)
(-0.000127359 -0.000184412 0.0137612)
(-0.000157447 -0.000157447 0.0136071)
(-0.000170214 -0.000122204 0.0131947)
(0.000135861 -0.000135861 0.0126605)
(0.000122204 -0.000170214 0.0131947)
(0.000100434 -0.000197515 0.0134849)
(6.5203e-05 -0.000216796 0.0136225)
(2.25358e-05 -0.000226452 0.0136751)
(-2.25358e-05 -0.000226452 0.0136751)
(-6.5203e-05 -0.000216796 0.0136225)
(-0.000100434 -0.000197515 0.0134849)
(-0.000122204 -0.000170214 0.0131947)
(-0.000135861 -0.000135861 0.0126605)
(5.16821e-05 5.16821e-05 0.012597)
(4.9083e-05 6.90667e-05 0.0131609)
(4.26626e-05 8.38451e-05 0.0134809)
(2.85525e-05 9.48705e-05 0.0136417)
(1.00256e-05 0.000100524 0.0137068)
(-1.00256e-05 0.000100524 0.0137068)
(-2.85525e-05 9.48705e-05 0.0136417)
(-4.26626e-05 8.38451e-05 0.0134809)
(-4.9083e-05 6.90667e-05 0.0131609)
(-5.16821e-05 5.16821e-05 0.012597)
(6.90667e-05 4.9083e-05 0.0131609)
(6.85641e-05 6.85641e-05 0.0136245)
(5.8562e-05 8.4666e-05 0.0138239)
(3.91343e-05 9.61071e-05 0.0138988)
(1.37193e-05 0.000101975 0.0139214)
(-1.37193e-05 0.000101975 0.0139214)
(-3.91343e-05 9.61071e-05 0.0138988)
(-5.8562e-05 8.46661e-05 0.0138239)
(-6.85641e-05 6.85641e-05 0.0136245)
(-6.90667e-05 4.9083e-05 0.0131609)
(8.38451e-05 4.26626e-05 0.0134809)
(8.4666e-05 5.8562e-05 0.0138239)
(7.20508e-05 7.20508e-05 0.0139277)
(4.80295e-05 8.15182e-05 0.0139442)
(1.68169e-05 8.63447e-05 0.0139407)
(-1.68169e-05 8.63447e-05 0.0139407)
(-4.80295e-05 8.15182e-05 0.0139442)
(-7.20508e-05 7.20508e-05 0.0139277)
(-8.46661e-05 5.8562e-05 0.0138239)
(-8.38451e-05 4.26626e-05 0.0134809)
(9.48705e-05 2.85524e-05 0.0136417)
(9.61071e-05 3.91343e-05 0.0138988)
(8.15182e-05 4.80295e-05 0.0139442)
(5.42094e-05 5.42094e-05 0.0139296)
(1.89588e-05 5.73371e-05 0.0139134)
(-1.89588e-05 5.73371e-05 0.0139134)
(-5.42094e-05 5.42094e-05 0.0139296)
(-8.15182e-05 4.80295e-05 0.0139442)
(-9.61071e-05 3.91343e-05 0.0138988)
(-9.48705e-05 2.85525e-05 0.0136417)
(0.000100524 1.00256e-05 0.0137068)
(0.000101975 1.37193e-05 0.0139214)
(8.63447e-05 1.68169e-05 0.0139407)
(5.73371e-05 1.89588e-05 0.0139134)
(2.00384e-05 2.00384e-05 0.0138924)
(-2.00384e-05 2.00384e-05 0.0138924)
(-5.73371e-05 1.89588e-05 0.0139134)
(-8.63447e-05 1.68169e-05 0.0139407)
(-0.000101975 1.37193e-05 0.0139214)
(-0.000100524 1.00256e-05 0.0137068)
(0.000100524 -1.00256e-05 0.0137068)
(0.000101975 -1.37193e-05 0.0139214)
(8.63447e-05 -1.68169e-05 0.0139407)
(5.73371e-05 -1.89588e-05 0.0139134)
(2.00384e-05 -2.00384e-05 0.0138924)
(-2.00384e-05 -2.00384e-05 0.0138924)
(-5.73371e-05 -1.89588e-05 0.0139134)
(-8.63447e-05 -1.68169e-05 0.0139407)
(-0.000101975 -1.37193e-05 0.0139214)
(-0.000100524 -1.00256e-05 0.0137068)
(9.48705e-05 -2.85525e-05 0.0136417)
(9.61071e-05 -3.91343e-05 0.0138988)
(8.15182e-05 -4.80295e-05 0.0139442)
(5.42094e-05 -5.42094e-05 0.0139296)
(1.89588e-05 -5.73371e-05 0.0139134)
(-1.89588e-05 -5.73371e-05 0.0139134)
(-5.42094e-05 -5.42094e-05 0.0139296)
(-8.15182e-05 -4.80295e-05 0.0139442)
(-9.61071e-05 -3.91343e-05 0.0138988)
(-9.48705e-05 -2.85524e-05 0.0136417)
(8.38451e-05 -4.26626e-05 0.0134809)
(8.46661e-05 -5.8562e-05 0.0138239)
(7.20508e-05 -7.20508e-05 0.0139277)
(4.80295e-05 -8.15182e-05 0.0139442)
(1.68169e-05 -8.63447e-05 0.0139407)
(-1.68169e-05 -8.63447e-05 0.0139407)
(-4.80295e-05 -8.15182e-05 0.0139442)
(-7.20508e-05 -7.20508e-05 0.0139277)
(-8.4666e-05 -5.85619e-05 0.0138239)
(-8.38451e-05 -4.26626e-05 0.0134809)
(6.90667e-05 -4.9083e-05 0.0131609)
(6.85641e-05 -6.85641e-05 0.0136245)
(5.8562e-05 -8.4666e-05 0.0138239)
(3.91343e-05 -9.61071e-05 0.0138988)
(1.37193e-05 -0.000101975 0.0139214)
(-1.37193e-05 -0.000101975 0.0139214)
(-3.91343e-05 -9.61071e-05 0.0138988)
(-5.85619e-05 -8.4666e-05 0.0138239)
(-6.85641e-05 -6.85641e-05 0.0136245)
(-6.90667e-05 -4.9083e-05 0.0131609)
(5.16821e-05 -5.16821e-05 0.012597)
(4.9083e-05 -6.90667e-05 0.0131609)
(4.26626e-05 -8.38451e-05 0.0134809)
(2.85525e-05 -9.48705e-05 0.0136417)
(1.00256e-05 -0.000100524 0.0137068)
(-1.00256e-05 -0.000100524 0.0137068)
(-2.85524e-05 -9.48705e-05 0.0136417)
(-4.26626e-05 -8.38451e-05 0.0134809)
(-4.9083e-05 -6.90667e-05 0.0131609)
(-5.16821e-05 -5.16822e-05 0.012597)
(1.60984e-05 1.60984e-05 0.0125639)
(1.63526e-05 2.32753e-05 0.0131364)
(1.51837e-05 2.98353e-05 0.0134677)
(1.05031e-05 3.50126e-05 0.0136384)
(3.75727e-06 3.77292e-05 0.0137091)
(-3.75727e-06 3.77292e-05 0.0137091)
(-1.05031e-05 3.50126e-05 0.0136384)
(-1.51837e-05 2.98353e-05 0.0134677)
(-1.63526e-05 2.32753e-05 0.0131364)
(-1.60984e-05 1.60984e-05 0.0125639)
(2.32753e-05 1.63526e-05 0.0131364)
(2.51868e-05 2.51868e-05 0.0136204)
(2.2897e-05 3.3075e-05 0.0138409)
(1.5845e-05 3.90038e-05 0.0139328)
(5.65056e-06 4.21254e-05 0.0139647)
(-5.65055e-06 4.21254e-05 0.0139647)
(-1.5845e-05 3.90038e-05 0.0139328)
(-2.28971e-05 3.3075e-05 0.0138409)
(-2.51868e-05 2.51868e-05 0.0136204)
(-2.32753e-05 1.63526e-05 0.0131364)
(2.98353e-05 1.51837e-05 0.0134677)
(3.30749e-05 2.2897e-05 0.0138409)
(2.99227e-05 2.99227e-05 0.0139742)
(2.06474e-05 3.51047e-05 0.014013)
(7.34666e-06 3.7811e-05 0.0140212)
(-7.34665e-06 3.7811e-05 0.0140212)
(-2.06474e-05 3.51047e-05 0.014013)
(-2.99227e-05 2.99227e-05 0.0139742)
(-3.30749e-05 2.28971e-05 0.0138409)
(-2.98353e-05 1.51837e-05 0.0134677)
(3.50126e-05 1.05031e-05 0.0136384)
(3.90038e-05 1.5845e-05 0.0139328)
(3.51047e-05 2.06474e-05 0.014013)
(2.41386e-05 2.41386e-05 0.0140239)
(8.57226e-06 2.59464e-05 0.0140208)
(-8.57225e-06 2.59464e-05 0.0140208)
(-2.41385e-05 2.41386e-05 0.0140239)
(-3.51047e-05 2.06474e-05 0.014013)
(-3.90038e-05 1.5845e-05 0.0139328)
(-3.50126e-05 1.05031e-05 0.0136384)
(3.77292e-05 3.75727e-06 0.0137091)
(4.21254e-05 5.65056e-06 0.0139647)
(3.7811e-05 7.34666e-06 0.0140212)
(2.59464e-05 8.57226e-06 0.0140208)
(9.20425e-06 9.20426e-06 0.0140135)
(-9.20425e-06 9.20426e-06 0.0140135)
(-2.59463e-05 8.57226e-06 0.0140208)
(-3.7811e-05 7.34666e-06 0.0140212)
(-4.21254e-05 5.65056e-06 0.0139647)
(-3.77292e-05 3.75727e-06 0.0137091)
(3.77292e-05 -3.75727e-06 0.0137091)
(4.21254e-05 -5.65056e-06 0.0139647)
(3.7811e-05 -7.34666e-06 0.0140212)
(2.59464e-05 -8.57225e-06 0.0140208)
(9.20425e-06 -9.20425e-06 0.0140135)
(-9.20425e-06 -9.20425e-06 0.0140135)
(-2.59463e-05 -8.57225e-06 0.0140208)
(-3.7811e-05 -7.34666e-06 0.0140212)
(-4.21254e-05 -5.65056e-06 0.0139647)
(-3.77292e-05 -3.75727e-06 0.0137091)
(3.50126e-05 -1.05031e-05 0.0136384)
(3.90038e-05 -1.5845e-05 0.0139328)
(3.51047e-05 -2.06474e-05 0.014013)
(2.41386e-05 -2.41385e-05 0.0140239)
(8.57226e-06 -2.59463e-05 0.0140208)
(-8.57225e-06 -2.59463e-05 0.0140208)
(-2.41385e-05 -2.41385e-05 0.0140239)
(-3.51047e-05 -2.06474e-05 0.014013)
(-3.90038e-05 -1.5845e-05 0.0139328)
(-3.50126e-05 -1.05031e-05 0.0136384)
(2.98353e-05 -1.51837e-05 0.0134677)
(3.3075e-05 -2.28971e-05 0.0138409)
(2.99227e-05 -2.99227e-05 0.0139742)
(2.06474e-05 -3.51047e-05 0.014013)
(7.34666e-06 -3.7811e-05 0.0140212)
(-7.34666e-06 -3.7811e-05 0.0140212)
(-2.06474e-05 -3.51047e-05 0.014013)
(-2.99227e-05 -2.99227e-05 0.0139742)
(-3.30749e-05 -2.2897e-05 0.0138409)
(-2.98353e-05 -1.51837e-05 0.0134677)
(2.32753e-05 -1.63526e-05 0.0131364)
(2.51868e-05 -2.51868e-05 0.0136204)
(2.28971e-05 -3.30749e-05 0.0138409)
(1.5845e-05 -3.90038e-05 0.0139328)
(5.65055e-06 -4.21254e-05 0.0139647)
(-5.65056e-06 -4.21254e-05 0.0139647)
(-1.5845e-05 -3.90038e-05 0.0139328)
(-2.2897e-05 -3.30749e-05 0.0138409)
(-2.51868e-05 -2.51868e-05 0.0136204)
(-2.32753e-05 -1.63526e-05 0.0131364)
(1.60984e-05 -1.60984e-05 0.0125639)
(1.63526e-05 -2.32753e-05 0.0131364)
(1.51837e-05 -2.98353e-05 0.0134677)
(1.05031e-05 -3.50126e-05 0.0136384)
(3.75727e-06 -3.77292e-05 0.0137091)
(-3.75727e-06 -3.77292e-05 0.0137091)
(-1.05031e-05 -3.50126e-05 0.0136384)
(-1.51837e-05 -2.98353e-05 0.0134677)
(-1.63526e-05 -2.32753e-05 0.0131364)
(-1.60984e-05 -1.60984e-05 0.0125639)
(4.1317e-06 4.1317e-06 0.0125481)
(4.65555e-06 6.69968e-06 0.0131219)
(4.73345e-06 9.20384e-06 0.0134565)
(3.41153e-06 1.12893e-05 0.0136307)
(1.24969e-06 1.24048e-05 0.0137036)
(-1.24968e-06 1.24048e-05 0.0137036)
(-3.41153e-06 1.12893e-05 0.0136307)
(-4.73344e-06 9.20384e-06 0.0134565)
(-4.65555e-06 6.69967e-06 0.0131219)
(-4.1317e-06 4.13169e-06 0.0125481)
(6.69968e-06 4.65555e-06 0.0131219)
(8.1242e-06 8.1242e-06 0.0136124)
(7.94252e-06 1.14286e-05 0.0138414)
(5.70747e-06 1.40305e-05 0.0139407)
(2.07348e-06 1.54296e-05 0.0139769)
(-2.07347e-06 1.54296e-05 0.0139769)
(-5.70746e-06 1.40305e-05 0.0139407)
(-7.94253e-06 1.14286e-05 0.0138414)
(-8.1242e-06 8.12419e-06 0.0136124)
(-6.69967e-06 4.65555e-06 0.0131219)
(9.20384e-06 4.73344e-06 0.0134565)
(1.14286e-05 7.94253e-06 0.0138414)
(1.10426e-05 1.10426e-05 0.0139879)
(7.8903e-06 1.3426e-05 0.0140375)
(2.85332e-06 1.46952e-05 0.0140516)
(-2.85332e-06 1.46952e-05 0.0140516)
(-7.89029e-06 1.3426e-05 0.0140375)
(-1.10426e-05 1.10426e-05 0.0139879)
(-1.14286e-05 7.94253e-06 0.0138414)
(-9.20384e-06 4.73345e-06 0.0134565)
(1.12893e-05 3.41153e-06 0.0136307)
(1.40305e-05 5.70746e-06 0.0139407)
(1.3426e-05 7.8903e-06 0.0140375)
(9.54033e-06 9.54033e-06 0.0140612)
(3.43891e-06 1.0411e-05 0.014065)
(-3.4389e-06 1.0411e-05 0.014065)
(-9.54032e-06 9.54033e-06 0.0140612)
(-1.3426e-05 7.89029e-06 0.0140375)
(-1.40305e-05 5.70746e-06 0.0139407)
(-1.12893e-05 3.41153e-06 0.0136307)
(1.24048e-05 1.24969e-06 0.0137036)
(1.54296e-05 2.07348e-06 0.0139769)
(1.46952e-05 2.85332e-06 0.0140516)
(1.0411e-05 3.43891e-06 0.014065)
(3.74664e-06 3.74664e-06 0.0140651)
(-3.74664e-06 3.74664e-06 0.0140651)
(-1.0411e-05 3.43891e-06 0.014065)
(-1.46952e-05 2.85332e-06 0.0140516)
(-1.54296e-05 2.07347e-06 0.0139769)
(-1.24048e-05 1.24969e-06 0.0137036)
(1.24048e-05 -1.24968e-06 0.0137036)
(1.54296e-05 -2.07347e-06 0.0139769)
(1.46952e-05 -2.85332e-06 0.0140516)
(1.0411e-05 -3.4389e-06 0.014065)
(3.74664e-06 -3.74664e-06 0.0140651)
(-3.74664e-06 -3.74664e-06 0.0140651)
(-1.0411e-05 -3.4389e-06 0.014065)
(-1.46952e-05 -2.85332e-06 0.0140516)
(-1.54296e-05 -2.07347e-06 0.0139769)
(-1.24048e-05 -1.24969e-06 0.0137036)
(1.12893e-05 -3.41153e-06 0.0136307)
(1.40305e-05 -5.70746e-06 0.0139407)
(1.3426e-05 -7.89029e-06 0.0140375)
(9.54033e-06 -9.54032e-06 0.0140612)
(3.43891e-06 -1.0411e-05 0.014065)
(-3.4389e-06 -1.0411e-05 0.014065)
(-9.54032e-06 -9.54032e-06 0.0140612)
(-1.3426e-05 -7.89029e-06 0.0140375)
(-1.40305e-05 -5.70746e-06 0.0139407)
(-1.12893e-05 -3.41153e-06 0.0136307)
(9.20383e-06 -4.73344e-06 0.0134565)
(1.14286e-05 -7.94253e-06 0.0138414)
(1.10426e-05 -1.10426e-05 0.0139879)
(7.89029e-06 -1.3426e-05 0.0140375)
(2.85332e-06 -1.46952e-05 0.0140516)
(-2.85332e-06 -1.46952e-05 0.0140516)
(-7.89029e-06 -1.3426e-05 0.0140375)
(-1.10426e-05 -1.10426e-05 0.0139879)
(-1.14286e-05 -7.94252e-06 0.0138414)
(-9.20384e-06 -4.73344e-06 0.0134565)
(6.69967e-06 -4.65555e-06 0.0131219)
(8.12419e-06 -8.1242e-06 0.0136124)
(7.94253e-06 -1.14286e-05 0.0138414)
(5.70746e-06 -1.40305e-05 0.0139407)
(2.07347e-06 -1.54296e-05 0.0139769)
(-2.07347e-06 -1.54296e-05 0.0139769)
(-5.70746e-06 -1.40305e-05 0.0139407)
(-7.94252e-06 -1.14286e-05 0.0138414)
(-8.12419e-06 -8.12419e-06 0.0136124)
(-6.69968e-06 -4.65555e-06 0.0131219)
(4.1317e-06 -4.1317e-06 0.0125481)
(4.65554e-06 -6.69967e-06 0.0131219)