/*--------------------------------*- C++ -*----------------------------------*\
| =========                 |                                                 |
| \\      /  F ield         | OpenFOAM: The Open Source CFD Toolbox           |
|  \\    /   O peration     | Version:  2412                                  |
|   \\  /    A nd           | Website:  www.openfoam.com                      |
|    \\/     M anipulation  |                                                 |
\*---------------------------------------------------------------------------*/
FoamFile
{
    version     2.0;
    format      ascii;
    arch        "LSB;label=32;scalar=64";
    class       volVectorField;
    location    "9.4";
    object      U;
}
// * * * * * * * * * * * * * * * * * * * * * * * * * * * * * * * * * * * * * //

dimensions      [0 1 -1 0 0 0 0];

internalField   nonuniform List<vector> 
15000
(
(0.00119991 0.00119991 0.0103797)
(0.000886045 0.00112033 0.0103275)
(0.000603553 0.00109258 0.0102845)
(0.000354355 0.00106581 0.0102568)
(0.000116392 0.00105357 0.010244)
(-0.000116392 0.00105357 0.010244)
(-0.000354355 0.00106581 0.0102568)
(-0.000603553 0.00109258 0.0102845)
(-0.000886045 0.00112033 0.0103275)
(-0.00119991 0.00119991 0.0103797)
(0.00112033 0.000886045 0.0103275)
(0.000833464 0.000833464 0.0102616)
(0.000570636 0.000796186 0.0102198)
(0.000333065 0.000770153 0.0101979)
(0.000109336 0.00075769 0.0101889)
(-0.000109336 0.00075769 0.0101889)
(-0.000333065 0.000770153 0.0101979)
(-0.000570636 0.000796186 0.0102198)
(-0.000833464 0.000833464 0.0102616)
(-0.00112033 0.000886045 0.0103275)
(0.00109258 0.000603553 0.0102845)
(0.000796186 0.000570636 0.0102198)
(0.000541653 0.000541653 0.0101866)
(0.000314679 0.000521045 0.0101715)
(0.000103139 0.000510816 0.0101657)
(-0.000103139 0.000510816 0.0101657)
(-0.000314679 0.000521045 0.0101715)
(-0.000541653 0.000541653 0.0101866)
(-0.000796186 0.000570636 0.0102198)
(-0.00109258 0.000603553 0.0102845)
(0.00106581 0.000354355 0.0102568)
(0.000770153 0.000333065 0.0101979)
(0.000521045 0.000314679 0.0101715)
(0.000301567 0.000301567 0.0101603)
(9.86878e-05 0.000294968 0.010156)
(-9.86878e-05 0.000294968 0.010156)
(-0.000301567 0.000301567 0.0101603)
(-0.000521045 0.000314679 0.0101715)
(-0.000770153 0.000333065 0.0101979)
(-0.00106581 0.000354355 0.0102568)
(0.00105357 0.000116392 0.010244)
(0.00075769 0.000109336 0.0101889)
(0.000510816 0.000103139 0.0101657)
(0.000294968 9.86878e-05 0.010156)
(9.64347e-05 9.64347e-05 0.0101521)
(-9.64347e-05 9.64347e-05 0.0101521)
(-0.000294968 9.86878e-05 0.010156)
(-0.000510816 0.000103139 0.0101657)
(-0.00075769 0.000109336 0.0101889)
(-0.00105357 0.000116392 0.010244)
(0.00105357 -0.000116392 0.010244)
(0.00075769 -0.000109336 0.0101889)
(0.000510816 -0.000103139 0.0101657)
(0.000294968 -9.86878e-05 0.010156)
(9.64347e-05 -9.64347e-05 0.0101521)
(-9.64347e-05 -9.64347e-05 0.0101521)
(-0.000294968 -9.86878e-05 0.010156)
(-0.000510816 -0.000103139 0.0101657)
(-0.00075769 -0.000109336 0.0101889)
(-0.00105357 -0.000116392 0.010244)
(0.00106581 -0.000354355 0.0102568)
(0.000770153 -0.000333065 0.0101979)
(0.000521045 -0.000314679 0.0101715)
(0.000301567 -0.000301567 0.0101603)
(9.86878e-05 -0.000294968 0.010156)
(-9.86878e-05 -0.000294968 0.010156)
(-0.000301567 -0.000301567 0.0101603)
(-0.000521045 -0.000314679 0.0101715)
(-0.000770153 -0.000333065 0.0101979)
(-0.00106581 -0.000354355 0.0102568)
(0.00109258 -0.000603553 0.0102845)
(0.000796186 -0.000570636 0.0102198)
(0.000541653 -0.000541653 0.0101866)
(0.000314679 -0.000521045 0.0101715)
(0.000103139 -0.000510816 0.0101657)
(-0.000103139 -0.000510816 0.0101657)
(-0.000314679 -0.000521045 0.0101715)
(-0.000541653 -0.000541653 0.0101866)
(-0.000796186 -0.000570636 0.0102198)
(-0.00109258 -0.000603553 0.0102845)
(0.00112033 -0.000886045 0.0103275)
(0.000833464 -0.000833464 0.0102616)
(0.000570636 -0.000796186 0.0102198)
(0.000333065 -0.000770153 0.0101979)
(0.000109336 -0.00075769 0.0101889)
(-0.000109336 -0.00075769 0.0101889)
(-0.000333065 -0.000770153 0.0101979)
(-0.000570636 -0.000796186 0.0102198)
(-0.000833464 -0.000833464 0.0102616)
(-0.00112033 -0.000886045 0.0103275)
(0.00119991 -0.00119991 0.0103797)
(0.000886045 -0.00112033 0.0103275)
(0.000603553 -0.00109258 0.0102845)
(0.000354355 -0.00106581 0.0102568)
(0.000116392 -0.00105357 0.010244)
(-0.000116392 -0.00105357 0.010244)
(-0.000354355 -0.00106581 0.0102568)
(-0.000603553 -0.00109258 0.0102845)
(-0.000886045 -0.00112033 0.0103275)
(-0.00119991 -0.00119991 0.0103797)
(0.000829883 0.000829883 0.0126946)
(0.000658572 0.000879666 0.0126604)
(0.000469863 0.00090856 0.0125623)
(0.00028133 0.000919558 0.0124685)
(9.3194e-05 0.000924255 0.0124154)
(-9.3194e-05 0.000924255 0.0124154)
(-0.00028133 0.000919558 0.0124685)
(-0.000469863 0.00090856 0.0125623)
(-0.000658572 0.000879666 0.0126604)
(-0.000829883 0.000829883 0.0126946)
(0.000879666 0.000658572 0.0126604)
(0.000684051 0.000684051 0.0124891)
(0.000479875 0.000690594 0.0122975)
(0.000283006 0.000688211 0.0121542)
(9.32641e-05 0.000685962 0.0120805)
(-9.32641e-05 0.000685962 0.0120805)
(-0.000283006 0.000688211 0.0121542)
(-0.000479875 0.000690594 0.0122975)
(-0.000684051 0.000684051 0.0124891)
(-0.000879666 0.000658572 0.0126604)
(0.00090856 0.000469863 0.0125623)
(0.000690594 0.000479875 0.0122975)
(0.000477138 0.000477138 0.0120602)
(0.000278457 0.000470879 0.0118983)
(9.13838e-05 0.00046695 0.0118183)
(-9.13838e-05 0.00046695 0.0118183)
(-0.000278457 0.000470879 0.0118983)
(-0.000477138 0.000477138 0.0120602)
(-0.000690594 0.000479875 0.0122975)
(-0.00090856 0.000469863 0.0125623)
(0.000919558 0.00028133 0.0124685)
(0.000688211 0.000283006 0.0121542)
(0.000470879 0.000278457 0.0118983)
(0.000273188 0.000273188 0.0117313)
(8.94382e-05 0.000270139 0.0116505)
(-8.94382e-05 0.000270139 0.0116505)
(-0.000273188 0.000273188 0.0117313)
(-0.000470879 0.000278457 0.0118983)
(-0.000688211 0.000283006 0.0121542)
(-0.000919558 0.00028133 0.0124685)
(0.000924255 9.3194e-05 0.0124154)
(0.000685962 9.32641e-05 0.0120805)
(0.00046695 9.13838e-05 0.0118183)
(0.000270139 8.94382e-05 0.0116505)
(8.83378e-05 8.83378e-05 0.0115697)
(-8.83378e-05 8.83378e-05 0.0115697)
(-0.000270139 8.94382e-05 0.0116505)
(-0.00046695 9.13838e-05 0.0118183)
(-0.000685962 9.32641e-05 0.0120805)
(-0.000924255 9.3194e-05 0.0124154)
(0.000924255 -9.3194e-05 0.0124154)
(0.000685962 -9.32641e-05 0.0120805)
(0.00046695 -9.13838e-05 0.0118183)
(0.000270139 -8.94382e-05 0.0116505)
(8.83378e-05 -8.83378e-05 0.0115697)
(-8.83378e-05 -8.83378e-05 0.0115697)
(-0.000270139 -8.94382e-05 0.0116505)
(-0.00046695 -9.13838e-05 0.0118183)
(-0.000685962 -9.32641e-05 0.0120805)
(-0.000924255 -9.3194e-05 0.0124154)
(0.000919558 -0.00028133 0.0124685)
(0.000688211 -0.000283006 0.0121542)
(0.000470879 -0.000278457 0.0118983)
(0.000273188 -0.000273188 0.0117313)
(8.94382e-05 -0.000270139 0.0116505)
(-8.94382e-05 -0.000270139 0.0116505)
(-0.000273188 -0.000273188 0.0117313)
(-0.000470879 -0.000278457 0.0118983)
(-0.000688211 -0.000283006 0.0121542)
(-0.000919558 -0.00028133 0.0124685)
(0.00090856 -0.000469863 0.0125623)
(0.000690594 -0.000479875 0.0122975)
(0.000477138 -0.000477138 0.0120602)
(0.000278457 -0.000470879 0.0118983)
(9.13838e-05 -0.00046695 0.0118183)
(-9.13838e-05 -0.00046695 0.0118183)
(-0.000278457 -0.000470879 0.0118983)
(-0.000477138 -0.000477138 0.0120602)
(-0.000690594 -0.000479875 0.0122975)
(-0.00090856 -0.000469863 0.0125623)
(0.000879666 -0.000658572 0.0126604)
(0.000684051 -0.000684051 0.0124891)
(0.000479875 -0.000690594 0.0122975)
(0.000283006 -0.000688211 0.0121542)
(9.32641e-05 -0.000685962 0.0120805)
(-9.32641e-05 -0.000685962 0.0120805)
(-0.000283006 -0.000688211 0.0121542)
(-0.000479875 -0.000690594 0.0122975)
(-0.000684051 -0.000684051 0.0124891)
(-0.000879666 -0.000658572 0.0126604)
(0.000829883 -0.000829883 0.0126946)
(0.000658572 -0.000879666 0.0126604)
(0.000469863 -0.00090856 0.0125623)
(0.00028133 -0.000919558 0.0124685)
(9.3194e-05 -0.000924255 0.0124154)
(-9.3194e-05 -0.000924255 0.0124154)
(-0.00028133 -0.000919558 0.0124685)
(-0.000469863 -0.00090856 0.0125623)
(-0.000658572 -0.000879666 0.0126604)
(-0.000829883 -0.000829883 0.0126946)
(0.000668643 0.000668643 0.0125244)
(0.000561474 0.000758987 0.0128284)
(0.000424378 0.000819844 0.0129423)
(0.000262819 0.000854966 0.0129651)
(8.85904e-05 0.000871284 0.0129622)
(-8.85904e-05 0.000871284 0.0129622)
(-0.000262819 0.000854966 0.0129651)
(-0.000424378 0.000819844 0.0129423)
(-0.000561474 0.000758987 0.0128284)
(-0.000668643 0.000668643 0.0125244)
(0.000758987 0.000561474 0.0128284)
(0.00063361 0.00063361 0.0129625)
(0.000469032 0.00067476 0.0129263)
(0.000286391 0.000694759 0.0128519)
(9.60057e-05 0.000702927 0.0128026)
(-9.60057e-05 0.000702927 0.0128026)
(-0.000286391 0.000694759 0.0128519)
(-0.000469032 0.00067476 0.0129263)
(-0.00063361 0.00063361 0.0129625)
(-0.000758987 0.000561474 0.0128284)
(0.000819844 0.000424378 0.0129423)
(0.00067476 0.000469032 0.0129263)
(0.000492103 0.000492103 0.0127859)
(0.000297216 0.000501662 0.0126525)
(9.91705e-05 0.00050494 0.0125776)
(-9.91705e-05 0.00050494 0.0125776)
(-0.000297216 0.000501662 0.0126525)
(-0.000492103 0.000492103 0.0127859)
(-0.00067476 0.000469032 0.0129263)
(-0.000819844 0.000424378 0.0129423)
(0.000854966 0.000262819 0.0129651)
(0.000694759 0.000286391 0.0128519)
(0.000501662 0.000297216 0.0126525)
(0.000301011 0.000301011 0.0124896)
(0.000100155 0.000302026 0.0124033)
(-0.000100155 0.000302026 0.0124033)
(-0.000301011 0.000301011 0.0124896)
(-0.000501662 0.000297216 0.0126525)
(-0.000694759 0.000286391 0.0128519)
(-0.000854966 0.000262819 0.0129651)
(0.000871284 8.85904e-05 0.0129622)
(0.000702927 9.60057e-05 0.0128026)
(0.00050494 9.91705e-05 0.0125776)
(0.000302026 0.000100155 0.0124033)
(0.000100359 0.000100359 0.0123129)
(-0.000100359 0.000100359 0.0123129)
(-0.000302026 0.000100155 0.0124033)
(-0.00050494 9.91705e-05 0.0125776)
(-0.000702927 9.60057e-05 0.0128026)
(-0.000871284 8.85904e-05 0.0129622)
(0.000871284 -8.85904e-05 0.0129622)
(0.000702927 -9.60057e-05 0.0128026)
(0.00050494 -9.91705e-05 0.0125776)
(0.000302026 -0.000100155 0.0124033)
(0.000100359 -0.000100359 0.0123129)
(-0.000100359 -0.000100359 0.0123129)
(-0.000302026 -0.000100155 0.0124033)
(-0.00050494 -9.91705e-05 0.0125776)
(-0.000702927 -9.60057e-05 0.0128026)
(-0.000871284 -8.85904e-05 0.0129622)
(0.000854966 -0.000262819 0.0129651)
(0.000694759 -0.000286391 0.0128519)
(0.000501662 -0.000297216 0.0126525)
(0.000301011 -0.000301011 0.0124896)
(0.000100155 -0.000302026 0.0124033)
(-0.000100155 -0.000302026 0.0124033)
(-0.000301011 -0.000301011 0.0124896)
(-0.000501662 -0.000297216 0.0126525)
(-0.000694759 -0.000286391 0.0128519)
(-0.000854966 -0.000262819 0.0129651)
(0.000819844 -0.000424378 0.0129423)
(0.00067476 -0.000469032 0.0129263)
(0.000492103 -0.000492103 0.0127859)
(0.000297216 -0.000501662 0.0126525)
(9.91705e-05 -0.00050494 0.0125776)
(-9.91705e-05 -0.00050494 0.0125776)
(-0.000297216 -0.000501662 0.0126525)
(-0.000492103 -0.000492103 0.0127859)
(-0.00067476 -0.000469032 0.0129263)
(-0.000819844 -0.000424378 0.0129423)
(0.000758987 -0.000561474 0.0128284)
(0.00063361 -0.00063361 0.0129625)
(0.000469032 -0.00067476 0.0129263)
(0.000286391 -0.000694759 0.0128519)
(9.60057e-05 -0.000702927 0.0128026)
(-9.60057e-05 -0.000702927 0.0128026)
(-0.000286391 -0.000694759 0.0128519)
(-0.000469032 -0.00067476 0.0129263)
(-0.00063361 -0.00063361 0.0129625)
(-0.000758987 -0.000561474 0.0128284)
(0.000668643 -0.000668643 0.0125244)
(0.000561474 -0.000758987 0.0128284)
(0.000424378 -0.000819844 0.0129423)
(0.000262819 -0.000854966 0.0129651)
(8.85904e-05 -0.000871284 0.0129622)
(-8.85904e-05 -0.000871284 0.0129622)
(-0.000262819 -0.000854966 0.0129651)
(-0.000424378 -0.000819844 0.0129423)
(-0.000561474 -0.000758987 0.0128284)
(-0.000668643 -0.000668643 0.0125244)
(0.000371163 0.000371163 0.0127554)
(0.00032374 0.000451106 0.0132589)
(0.000256051 0.000509339 0.013518)
(0.000162537 0.000547324 0.0136304)
(5.54953e-05 0.000565546 0.013669)
(-5.54953e-05 0.000565546 0.013669)
(-0.000162537 0.000547324 0.0136304)
(-0.000256051 0.000509339 0.013518)
(-0.00032374 0.000451106 0.0132589)
(-0.000371163 0.000371163 0.0127554)
(0.000451106 0.00032374 0.0132589)
(0.000396026 0.000396026 0.0136174)
(0.000305741 0.000444833 0.0137175)
(0.000191678 0.000473796 0.0137152)
(6.50967e-05 0.000487159 0.0136958)
(-6.50967e-05 0.000487159 0.0136958)
(-0.000191678 0.000473796 0.0137152)
(-0.000305741 0.000444833 0.0137175)
(-0.000396026 0.000396026 0.0136174)
(-0.000451106 0.00032374 0.0132589)
(0.000509339 0.000256051 0.013518)
(0.000444833 0.000305741 0.0137175)
(0.000338859 0.000338859 0.0136875)
(0.000210453 0.000357818 0.013602)
(7.11882e-05 0.000366348 0.0135437)
(-7.11882e-05 0.000366348 0.0135437)
(-0.000210453 0.000357818 0.013602)
(-0.000338859 0.000338859 0.0136875)
(-0.000444833 0.000305741 0.0137175)
(-0.000509339 0.000256051 0.013518)
(0.000547324 0.000162537 0.0136304)
(0.000473796 0.000191678 0.0137152)
(0.000357818 0.000210453 0.013602)
(0.000221016 0.000221016 0.0134687)
(7.4591e-05 0.000225709 0.0133898)
(-7.4591e-05 0.000225709 0.0133898)
(-0.000221016 0.000221016 0.0134687)
(-0.000357818 0.000210453 0.013602)
(-0.000473796 0.000191678 0.0137152)
(-0.000547324 0.000162537 0.0136304)
(0.000565546 5.54953e-05 0.013669)
(0.000487159 6.50967e-05 0.0136958)
(0.000366348 7.11882e-05 0.0135437)
(0.000225709 7.4591e-05 0.0133898)
(7.60945e-05 7.60945e-05 0.0133026)
(-7.60945e-05 7.60945e-05 0.0133026)
(-0.000225709 7.4591e-05 0.0133898)
(-0.000366348 7.11882e-05 0.0135437)
(-0.000487159 6.50967e-05 0.0136958)
(-0.000565546 5.54953e-05 0.013669)
(0.000565546 -5.54953e-05 0.013669)
(0.000487159 -6.50967e-05 0.0136958)
(0.000366348 -7.11882e-05 0.0135437)
(0.000225709 -7.4591e-05 0.0133898)
(7.60945e-05 -7.60945e-05 0.0133026)
(-7.60945e-05 -7.60945e-05 0.0133026)
(-0.000225709 -7.4591e-05 0.0133898)
(-0.000366348 -7.11882e-05 0.0135437)
(-0.000487159 -6.50967e-05 0.0136958)
(-0.000565546 -5.54953e-05 0.013669)
(0.000547324 -0.000162537 0.0136304)
(0.000473796 -0.000191678 0.0137152)
(0.000357818 -0.000210453 0.013602)
(0.000221016 -0.000221016 0.0134687)
(7.4591e-05 -0.000225709 0.0133898)
(-7.4591e-05 -0.000225709 0.0133898)
(-0.000221016 -0.000221016 0.0134687)
(-0.000357818 -0.000210453 0.013602)
(-0.000473796 -0.000191678 0.0137152)
(-0.000547324 -0.000162537 0.0136304)
(0.000509339 -0.000256051 0.013518)
(0.000444833 -0.000305741 0.0137175)
(0.000338859 -0.000338859 0.0136875)
(0.000210453 -0.000357818 0.013602)
(7.11882e-05 -0.000366348 0.0135437)
(-7.11882e-05 -0.000366348 0.0135437)
(-0.000210453 -0.000357818 0.013602)
(-0.000338859 -0.000338859 0.0136875)
(-0.000444833 -0.000305741 0.0137175)
(-0.000509339 -0.000256051 0.013518)
(0.000451106 -0.00032374 0.0132589)
(0.000396026 -0.000396026 0.0136174)
(0.000305741 -0.000444833 0.0137175)
(0.000191678 -0.000473796 0.0137152)
(6.50967e-05 -0.000487159 0.0136958)
(-6.50967e-05 -0.000487159 0.0136958)
(-0.000191678 -0.000473796 0.0137152)
(-0.000305741 -0.000444833 0.0137175)
(-0.000396026 -0.000396026 0.0136174)
(-0.000451106 -0.00032374 0.0132589)
(0.000371163 -0.000371163 0.0127554)
(0.00032374 -0.000451106 0.0132589)
(0.000256051 -0.000509339 0.013518)
(0.000162537 -0.000547324 0.0136304)
(5.54953e-05 -0.000565546 0.013669)
(-5.54953e-05 -0.000565546 0.013669)
(-0.000162537 -0.000547324 0.0136304)
(-0.000256051 -0.000509339 0.013518)
(-0.00032374 -0.000451106 0.0132589)
(-0.000371163 -0.000371163 0.0127554)
(0.000210801 0.000210801 0.0126471)
(0.000187497 0.000261886 0.0132874)
(0.000152737 0.000302556 0.013657)
(9.8591e-05 0.000330677 0.0138438)
(3.39614e-05 0.000344546 0.0139192)
(-3.39614e-05 0.000344546 0.0139192)
(-9.8591e-05 0.000330677 0.0138438)
(-0.000152737 0.000302556 0.013657)
(-0.000187497 0.000261886 0.0132874)
(-0.000210801 0.000210801 0.0126471)
(0.000261886 0.000187497 0.0132874)
(0.0002388 0.0002388 0.0138224)
(0.000190479 0.000276729 0.0140472)
(0.000121899 0.000301231 0.0141217)
(4.18247e-05 0.0003131 0.0141383)
(-4.18247e-05 0.0003131 0.0141383)
(-0.000121899 0.000301231 0.0141217)
(-0.000190479 0.000276729 0.0140472)
(-0.0002388 0.0002388 0.0138224)
(-0.000261886 0.000187497 0.0132874)
(0.000302556 0.000152737 0.013657)
(0.000276729 0.000190479 0.0140472)
(0.000218556 0.000218556 0.0141406)
(0.000138929 0.000236339 0.0141256)
(4.75332e-05 0.000244861 0.0140989)
(-4.75332e-05 0.000244861 0.0140989)
(-0.000138929 0.000236339 0.0141256)
(-0.000218556 0.000218556 0.0141406)
(-0.000276729 0.000190479 0.0140472)
(-0.000302556 0.000152737 0.013657)
(0.000330677 9.8591e-05 0.0138438)
(0.000301231 0.000121899 0.0141217)
(0.000236339 0.000138929 0.0141256)
(0.000149608 0.000149608 0.014056)
(5.10993e-05 0.000154694 0.0140049)
(-5.10993e-05 0.000154694 0.0140049)
(-0.000149608 0.000149608 0.014056)
(-0.000236339 0.000138929 0.0141256)
(-0.000301231 0.000121899 0.0141217)
(-0.000330677 9.8591e-05 0.0138438)
(0.000344546 3.39614e-05 0.0139192)
(0.0003131 4.18247e-05 0.0141383)
(0.000244861 4.75332e-05 0.0140989)
(0.000154694 5.10993e-05 0.0140049)
(5.27927e-05 5.27927e-05 0.0139436)
(-5.27927e-05 5.27927e-05 0.0139436)
(-0.000154694 5.10993e-05 0.0140049)
(-0.000244861 4.75332e-05 0.0140989)
(-0.0003131 4.18247e-05 0.0141383)
(-0.000344546 3.39614e-05 0.0139192)
(0.000344546 -3.39614e-05 0.0139192)
(0.0003131 -4.18247e-05 0.0141383)
(0.000244861 -4.75332e-05 0.0140989)
(0.000154694 -5.10993e-05 0.0140049)
(5.27927e-05 -5.27927e-05 0.0139436)
(-5.27927e-05 -5.27927e-05 0.0139436)
(-0.000154694 -5.10993e-05 0.0140049)
(-0.000244861 -4.75332e-05 0.0140989)
(-0.0003131 -4.18247e-05 0.0141383)
(-0.000344546 -3.39614e-05 0.0139192)
(0.000330677 -9.8591e-05 0.0138438)
(0.000301231 -0.000121899 0.0141217)
(0.000236339 -0.000138929 0.0141256)
(0.000149608 -0.000149608 0.014056)
(5.10993e-05 -0.000154694 0.0140049)
(-5.10993e-05 -0.000154694 0.0140049)
(-0.000149608 -0.000149608 0.014056)
(-0.000236339 -0.000138929 0.0141256)
(-0.000301231 -0.000121899 0.0141217)
(-0.000330677 -9.8591e-05 0.0138438)
(0.000302556 -0.000152737 0.013657)
(0.000276729 -0.000190479 0.0140472)
(0.000218556 -0.000218556 0.0141406)
(0.000138929 -0.000236339 0.0141256)
(4.75332e-05 -0.000244861 0.0140989)
(-4.75332e-05 -0.000244861 0.0140989)
(-0.000138929 -0.000236339 0.0141256)
(-0.000218556 -0.000218556 0.0141406)
(-0.000276729 -0.000190479 0.0140472)
(-0.000302556 -0.000152737 0.013657)
(0.000261886 -0.000187497 0.0132874)
(0.0002388 -0.0002388 0.0138224)
(0.000190479 -0.000276729 0.0140472)
(0.000121899 -0.000301231 0.0141217)
(4.18247e-05 -0.0003131 0.0141383)
(-4.18247e-05 -0.0003131 0.0141383)
(-0.000121899 -0.000301231 0.0141217)
(-0.000190479 -0.000276729 0.0140472)
(-0.0002388 -0.0002388 0.0138224)
(-0.000261886 -0.000187497 0.0132874)
(0.000210801 -0.000210801 0.0126471)
(0.000187497 -0.000261886 0.0132874)
(0.000152737 -0.000302556 0.013657)
(9.8591e-05 -0.000330677 0.0138438)
(3.39614e-05 -0.000344546 0.0139192)
(-3.39614e-05 -0.000344546 0.0139192)
(-9.8591e-05 -0.000330677 0.0138438)
(-0.000152737 -0.000302556 0.013657)
(-0.000187497 -0.000261886 0.0132874)
(-0.000210801 -0.000210801 0.0126471)
(9.82866e-05 9.82866e-05 0.0125645)
(9.06912e-05 0.000127695 0.0132617)
(7.70161e-05 0.000152868 0.0136844)
(5.08947e-05 0.000171274 0.0139107)
(1.77494e-05 0.000180626 0.0140067)
(-1.77494e-05 0.000180626 0.0140067)
(-5.08947e-05 0.000171274 0.0139107)
(-7.70161e-05 0.000152868 0.0136844)
(-9.06912e-05 0.000127695 0.0132617)
(-9.82866e-05 9.82866e-05 0.0125645)
(0.000127695 9.06912e-05 0.0132617)
(0.000122882 0.000122882 0.013887)
(0.000102475 0.000148898 0.0141853)
(6.74274e-05 0.000167008 0.0143103)
(2.34567e-05 0.000176167 0.0143522)
(-2.34567e-05 0.000176167 0.0143522)
(-6.74274e-05 0.000167008 0.0143103)
(-0.000102475 0.000148898 0.0141853)
(-0.000122882 0.000122882 0.013887)
(-0.000127695 9.06912e-05 0.0132617)
(0.000152868 7.70161e-05 0.0136844)
(0.000148898 0.000102475 0.0141853)
(0.000123388 0.000123388 0.0143632)
(8.08494e-05 0.000137738 0.0144032)
(2.80736e-05 0.000144946 0.0144034)
(-2.80735e-05 0.000144946 0.0144034)
(-8.08494e-05 0.000137738 0.0144032)
(-0.000123388 0.000123388 0.0143632)
(-0.000148898 0.000102475 0.0141853)
(-0.000152868 7.70161e-05 0.0136844)
(0.000171274 5.08947e-05 0.0139107)
(0.000167008 6.74274e-05 0.0143103)
(0.000137738 8.08494e-05 0.0144032)
(8.99745e-05 8.99745e-05 0.01439)
(3.12001e-05 9.45308e-05 0.0143661)
(-3.12001e-05 9.45308e-05 0.0143661)
(-8.99745e-05 8.99745e-05 0.01439)
(-0.000137738 8.08494e-05 0.0144032)
(-0.000167008 6.74274e-05 0.0143103)
(-0.000171274 5.08947e-05 0.0139107)
(0.000180626 1.77494e-05 0.0140067)
(0.000176167 2.34567e-05 0.0143522)
(0.000144946 2.80735e-05 0.0144034)
(9.45308e-05 3.12001e-05 0.0143661)
(3.27566e-05 3.27566e-05 0.0143318)
(-3.27566e-05 3.27566e-05 0.0143318)
(-9.45308e-05 3.12001e-05 0.0143661)
(-0.000144946 2.80735e-05 0.0144034)
(-0.000176167 2.34567e-05 0.0143522)
(-0.000180626 1.77494e-05 0.0140067)
(0.000180626 -1.77494e-05 0.0140067)
(0.000176167 -2.34567e-05 0.0143522)
(0.000144946 -2.80735e-05 0.0144034)
(9.45308e-05 -3.12001e-05 0.0143661)
(3.27566e-05 -3.27566e-05 0.0143318)
(-3.27566e-05 -3.27566e-05 0.0143318)
(-9.45308e-05 -3.12001e-05 0.0143661)
(-0.000144946 -2.80735e-05 0.0144034)
(-0.000176167 -2.34567e-05 0.0143522)
(-0.000180626 -1.77494e-05 0.0140067)
(0.000171274 -5.08947e-05 0.0139107)
(0.000167008 -6.74274e-05 0.0143103)
(0.000137738 -8.08494e-05 0.0144032)
(8.99745e-05 -8.99745e-05 0.01439)
(3.12001e-05 -9.45308e-05 0.0143661)
(-3.12001e-05 -9.45308e-05 0.0143661)
(-8.99745e-05 -8.99745e-05 0.01439)
(-0.000137738 -8.08494e-05 0.0144032)
(-0.000167008 -6.74274e-05 0.0143103)
(-0.000171274 -5.08947e-05 0.0139107)
(0.000152868 -7.70161e-05 0.0136844)
(0.000148898 -0.000102475 0.0141853)
(0.000123388 -0.000123388 0.0143632)
(8.08494e-05 -0.000137738 0.0144032)
(2.80735e-05 -0.000144946 0.0144034)
(-2.80735e-05 -0.000144946 0.0144034)
(-8.08494e-05 -0.000137738 0.0144032)
(-0.000123388 -0.000123388 0.0143632)
(-0.000148898 -0.000102475 0.0141853)
(-0.000152868 -7.70161e-05 0.0136844)
(0.000127695 -9.06912e-05 0.0132617)
(0.000122882 -0.000122882 0.013887)
(0.000102475 -0.000148898 0.0141853)
(6.74274e-05 -0.000167008 0.0143103)
(2.34567e-05 -0.000176167 0.0143522)
(-2.34567e-05 -0.000176167 0.0143522)
(-6.74274e-05 -0.000167008 0.0143103)
(-0.000102475 -0.000148898 0.0141853)
(-0.000122882 -0.000122882 0.013887)
(-0.000127695 -9.06912e-05 0.0132617)
(9.82866e-05 -9.82866e-05 0.0125645)
(9.06912e-05 -0.000127695 0.0132617)
(7.70161e-05 -0.000152868 0.0136844)
(5.08947e-05 -0.000171274 0.0139107)
(1.77494e-05 -0.000180626 0.0140067)
(-1.77494e-05 -0.000180626 0.0140067)
(-5.08947e-05 -0.000171274 0.0139107)
(-7.70161e-05 -0.000152868 0.0136844)
(-9.06912e-05 -0.000127695 0.0132617)
(-9.82866e-05 -9.82866e-05 0.0125645)
(3.96478e-05 3.96478e-05 0.0125114)
(3.80574e-05 5.37684e-05 0.0132303)
(3.37436e-05 6.68003e-05 0.013677)
(2.28391e-05 7.68471e-05 0.0139228)
(8.07165e-06 8.21032e-05 0.0140296)
(-8.07165e-06 8.21032e-05 0.0140296)
(-2.28391e-05 7.68471e-05 0.0139228)
(-3.37436e-05 6.68003e-05 0.013677)
(-3.80574e-05 5.37683e-05 0.0132303)
(-3.96478e-05 3.96478e-05 0.0125114)
(5.37684e-05 3.80574e-05 0.0132303)
(5.49823e-05 5.49823e-05 0.0138981)
(4.81361e-05 6.98705e-05 0.0142364)
(3.26209e-05 8.09242e-05 0.0143916)
(1.15181e-05 8.67188e-05 0.0144497)
(-1.15181e-05 8.67188e-05 0.0144497)
(-3.26209e-05 8.09242e-05 0.0143916)
(-4.81361e-05 6.98705e-05 0.0142364)
(-5.49823e-05 5.49823e-05 0.0138981)
(-5.37683e-05 3.80574e-05 0.0132303)
(6.68003e-05 3.37436e-05 0.013677)
(6.98705e-05 4.81361e-05 0.0142364)
(6.10251e-05 6.10251e-05 0.0144664)
(4.12903e-05 7.04584e-05 0.0145442)
(1.45621e-05 7.53675e-05 0.014564)
(-1.45621e-05 7.53675e-05 0.014564)
(-4.12903e-05 7.04584e-05 0.0145442)
(-6.10251e-05 6.10251e-05 0.0144664)
(-6.98705e-05 4.81361e-05 0.0142364)
(-6.68003e-05 3.37436e-05 0.013677)
(7.68471e-05 2.28391e-05 0.0139228)
(8.09242e-05 3.26209e-05 0.0143916)
(7.04584e-05 4.12903e-05 0.0145442)
(4.75663e-05 4.75663e-05 0.014573)
(1.67547e-05 5.08088e-05 0.0145703)
(-1.67547e-05 5.08088e-05 0.0145703)
(-4.75663e-05 4.75663e-05 0.014573)
(-7.04584e-05 4.12904e-05 0.0145442)
(-8.09242e-05 3.26209e-05 0.0143916)
(-7.68471e-05 2.28391e-05 0.0139228)
(8.21032e-05 8.07165e-06 0.0140296)
(8.67188e-05 1.15181e-05 0.0144497)
(7.53675e-05 1.45621e-05 0.014564)
(5.08088e-05 1.67547e-05 0.0145703)
(1.78832e-05 1.78832e-05 0.0145581)
(-1.78832e-05 1.78832e-05 0.0145581)
(-5.08087e-05 1.67547e-05 0.0145703)
(-7.53675e-05 1.45621e-05 0.014564)
(-8.67188e-05 1.15181e-05 0.0144497)
(-8.21032e-05 8.07165e-06 0.0140296)
(8.21032e-05 -8.07165e-06 0.0140296)
(8.67188e-05 -1.15181e-05 0.0144497)
(7.53675e-05 -1.45621e-05 0.014564)
(5.08088e-05 -1.67547e-05 0.0145703)
(1.78832e-05 -1.78832e-05 0.0145581)
(-1.78832e-05 -1.78832e-05 0.0145581)
(-5.08087e-05 -1.67547e-05 0.0145703)
(-7.53675e-05 -1.45621e-05 0.014564)
(-8.67188e-05 -1.15181e-05 0.0144497)
(-8.21032e-05 -8.07165e-06 0.0140296)
(7.68471e-05 -2.28391e-05 0.0139228)
(8.09242e-05 -3.26209e-05 0.0143916)
(7.04584e-05 -4.12903e-05 0.0145442)
(4.75663e-05 -4.75663e-05 0.014573)
(1.67547e-05 -5.08087e-05 0.0145703)
(-1.67547e-05 -5.08087e-05 0.0145703)
(-4.75663e-05 -4.75663e-05 0.014573)
(-7.04584e-05 -4.12903e-05 0.0145442)
(-8.09242e-05 -3.26209e-05 0.0143916)
(-7.68471e-05 -2.28391e-05 0.0139228)
(6.68003e-05 -3.37436e-05 0.013677)
(6.98705e-05 -4.81361e-05 0.0142364)
(6.10251e-05 -6.10251e-05 0.0144664)
(4.12904e-05 -7.04584e-05 0.0145442)
(1.45621e-05 -7.53675e-05 0.014564)
(-1.45621e-05 -7.53675e-05 0.014564)
(-4.12903e-05 -7.04584e-05 0.0145442)
(-6.10251e-05 -6.10251e-05 0.0144664)
(-6.98705e-05 -4.81361e-05 0.0142364)
(-6.68003e-05 -3.37436e-05 0.013677)
(5.37683e-05 -3.80574e-05 0.0132303)
(5.49823e-05 -5.49823e-05 0.0138981)
(4.81361e-05 -6.98705e-05 0.0142364)
(3.26209e-05 -8.09242e-05 0.0143916)
(1.15181e-05 -8.67188e-05 0.0144497)
(-1.15181e-05 -8.67188e-05 0.0144497)
(-3.26209e-05 -8.09242e-05 0.0143916)
(-4.81361e-05 -6.98705e-05 0.0142364)
(-5.49822e-05 -5.49823e-05 0.0138981)
(-5.37684e-05 -3.80574e-05 0.0132303)
(3.96478e-05 -3.96478e-05 0.0125114)
(3.80574e-05 -5.37683e-05 0.0132303)
(3.37436e-05 -6.68003e-05 0.013677)
(2.28391e-05 -7.68471e-05 0.0139228)
(8.07165e-06 -8.21032e-05 0.0140296)
(-8.07165e-06 -8.21032e-05 0.0140296)
(-2.28391e-05 -7.68471e-05 0.0139228)
(-3.37436e-05 -6.68003e-05 0.013677)
(-3.80574e-05 -5.37684e-05 0.0132303)
(-3.96478e-05 -3.96478e-05 0.0125114)
(1.39202e-05 1.39202e-05 0.0124812)
(1.41175e-05 1.99335e-05 0.0132059)
(1.31966e-05 2.58717e-05 0.0136611)
(9.19278e-06 3.06692e-05 0.0139149)
(3.30097e-06 3.32484e-05 0.0140265)
(-3.30097e-06 3.32484e-05 0.0140265)
(-9.19278e-06 3.06692e-05 0.0139149)
(-1.31966e-05 2.58717e-05 0.0136611)
(-1.41175e-05 1.99335e-05 0.0132059)
(-1.39202e-05 1.39202e-05 0.0124812)
(1.99335e-05 1.41175e-05 0.0132059)
(2.19762e-05 2.19762e-05 0.0138899)
(2.03358e-05 2.94192e-05 0.0142467)
(1.42345e-05 3.52403e-05 0.0144175)
(5.10793e-06 3.83802e-05 0.0144844)
(-5.10793e-06 3.83802e-05 0.0144844)
(-1.42345e-05 3.52403e-05 0.0144175)
(-2.03358e-05 2.94192e-05 0.0142467)
(-2.19762e-05 2.19762e-05 0.0138899)
(-1.99335e-05 1.41175e-05 0.0132059)
(2.58717e-05 1.31966e-05 0.0136611)
(2.94192e-05 2.03358e-05 0.0142467)
(2.71961e-05 2.71961e-05 0.0145043)
(1.90229e-05 3.24735e-05 0.014604)
(6.81636e-06 3.52939e-05 0.0146357)
(-6.81636e-06 3.52939e-05 0.0146357)
(-1.90229e-05 3.24735e-05 0.014604)
(-2.71961e-05 2.71961e-05 0.0145043)
(-2.94192e-05 2.03358e-05 0.0142467)
(-2.58717e-05 1.31966e-05 0.0136611)
(3.06692e-05 9.19278e-06 0.0139149)
(3.52403e-05 1.42345e-05 0.0144175)
(3.24735e-05 1.90229e-05 0.014604)
(2.26587e-05 2.26587e-05 0.0146588)
(8.10545e-06 2.45848e-05 0.01467)
(-8.10545e-06 2.45848e-05 0.01467)
(-2.26587e-05 2.26587e-05 0.0146588)
(-3.24735e-05 1.90229e-05 0.014604)
(-3.52403e-05 1.42345e-05 0.0144175)
(-3.06692e-05 9.19278e-06 0.0139149)
(3.32484e-05 3.30097e-06 0.0140265)
(3.83802e-05 5.10793e-06 0.0144844)
(3.52939e-05 6.81636e-06 0.0146357)
(2.45848e-05 8.10545e-06 0.01467)
(8.78522e-06 8.78522e-06 0.0146724)
(-8.78522e-06 8.78523e-06 0.0146724)
(-2.45848e-05 8.10546e-06 0.01467)
(-3.52939e-05 6.81636e-06 0.0146357)
(-3.83802e-05 5.10793e-06 0.0144844)
(-3.32484e-05 3.30097e-06 0.0140265)
(3.32484e-05 -3.30097e-06 0.0140265)
(3.83802e-05 -5.10793e-06 0.0144844)
(3.52939e-05 -6.81636e-06 0.0146357)
(2.45848e-05 -8.10545e-06 0.01467)
(8.78523e-06 -8.78522e-06 0.0146724)
(-8.78522e-06 -8.78522e-06 0.0146724)
(-2.45848e-05 -8.10545e-06 0.01467)
(-3.52939e-05 -6.81636e-06 0.0146357)
(-3.83802e-05 -5.10793e-06 0.0144844)
(-3.32484e-05 -3.30097e-06 0.0140265)
(3.06692e-05 -9.19278e-06 0.0139149)
(3.52403e-05 -1.42345e-05 0.0144175)
(3.24735e-05 -1.90229e-05 0.014604)
(2.26587e-05 -2.26587e-05 0.0146588)
(8.10546e-06 -2.45848e-05 0.01467)
(-8.10545e-06 -2.45848e-05 0.01467)
(-2.26587e-05 -2.26587e-05 0.0146588)
(-3.24735e-05 -1.90229e-05 0.014604)
(-3.52403e-05 -1.42345e-05 0.0144175)
(-3.06692e-05 -9.19278e-06 0.0139149)
(2.58717e-05 -1.31966e-05 0.0136611)
(2.94192e-05 -2.03358e-05 0.0142467)
(2.71961e-05 -2.71961e-05 0.0145043)
(1.90229e-05 -3.24735e-05 0.014604)
(6.81636e-06 -3.52939e-05 0.0146357)
(-6.81635e-06 -3.52939e-05 0.0146357)
(-1.90229e-05 -3.24735e-05 0.014604)
(-2.71961e-05 -2.71961e-05 0.0145043)
(-2.94192e-05 -2.03358e-05 0.0142467)
(-2.58717e-05 -1.31966e-05 0.0136611)
(1.99335e-05 -1.41175e-05 0.0132059)
(2.19762e-05 -2.19762e-05 0.0138899)
(2.03358e-05 -2.94192e-05 0.0142467)
(1.42345e-05 -3.52403e-05 0.0144175)
(5.10793e-06 -3.83802e-05 0.0144844)
(-5.10793e-06 -3.83802e-05 0.0144844)
(-1.42345e-05 -3.52403e-05 0.0144175)
(-2.03357e-05 -2.94192e-05 0.0142467)
(-2.19762e-05 -2.19762e-05 0.0138899)
(-1.99335e-05 -1.41175e-05 0.0132059)
(1.39202e-05 -1.39202e-05 0.0124812)
(1.41175e-05 -1.99335e-05 0.0132059)
(1.31966e-05 -2.58717e-05 0.0136611)