/*--------------------------------*- C++ -*----------------------------------*\
| =========                 |                                                 |
| \\      /  F ield         | OpenFOAM: The Open Source CFD Toolbox           |
|  \\    /   O peration     | Version:  2412                                  |
|   \\  /    A nd           | Website:  www.openfoam.com                      |
|    \\/     M anipulation  |                                                 |
\*---------------------------------------------------------------------------*/
FoamFile
{
    version     2.0;
    format      ascii;
    arch        "LSB;label=32;scalar=64";
    class       surfaceScalarField;
    location    "8.6";
    object      phi;
}
// * * * * * * * * * * * * * * * * * * * * * * * * * * * * * * * * * * * * * //

dimensions      [0 3 -1 0 0 0 0];

oriented        oriented;

internalField   nonuniform List<scalar> 
43700
(
1.83783e-07
1.83783e-07
5.49902e-07
-2.23725e-07
-2.23725e-07
1.35875e-07
1.62828e-07
5.93633e-07
-1.9917e-07
8.9977e-08
1.4936e-07
6.24661e-07
-1.88692e-07
4.46497e-08
1.40417e-07
6.44591e-07
-1.79968e-07
2.24546e-18
1.36128e-07
6.54397e-07
-1.75946e-07
-4.46497e-08
1.36128e-07
6.54397e-07
-1.75946e-07
-8.9977e-08
1.40417e-07
6.44591e-07
-1.79968e-07
-1.35875e-07
1.4936e-07
6.24661e-07
-1.88692e-07
-1.83783e-07
1.62828e-07
5.93633e-07
-1.9917e-07
1.83783e-07
5.49902e-07
-2.23725e-07
-2.23725e-07
1.62828e-07
1.35875e-07
5.93633e-07
-1.9917e-07
1.21076e-07
1.21076e-07
6.29347e-07
7.98016e-08
1.09925e-07
6.54401e-07
3.95352e-08
1.02521e-07
6.70658e-07
-3.03115e-16
9.89125e-08
6.78723e-07
-3.95352e-08
9.89125e-08
6.78723e-07
-7.98016e-08
1.02521e-07
6.70658e-07
-1.21076e-07
1.09925e-07
6.54401e-07
-1.62828e-07
1.21076e-07
6.29347e-07
1.35875e-07
5.93633e-07
-1.9917e-07
1.4936e-07
8.9977e-08
6.24661e-07
-1.88692e-07
1.09925e-07
7.98016e-08
6.54401e-07
7.20554e-08
7.20554e-08
6.75611e-07
3.56177e-08
6.69029e-08
6.89619e-07
-4.46586e-16
6.43743e-08
6.96634e-07
-3.56177e-08
6.43743e-08
6.96634e-07
-7.20554e-08
6.69029e-08
6.89619e-07
-1.09925e-07
7.20554e-08
6.75611e-07
-1.4936e-07
7.98016e-08
6.54401e-07
8.9977e-08
6.24661e-07
-1.88692e-07
1.40417e-07
4.46497e-08
6.44591e-07
-1.79968e-07
1.02521e-07
3.95352e-08
6.70658e-07
6.69029e-08
3.56177e-08
6.89619e-07
3.29975e-08
3.29975e-08
7.02313e-07
-5.83098e-16
3.17057e-08
7.08708e-07
-3.29975e-08
3.17057e-08
7.08708e-07
-6.69029e-08
3.29975e-08
7.02313e-07
-1.02521e-07
3.56177e-08
6.89619e-07
-1.40417e-07
3.95352e-08
6.70658e-07
4.46497e-08
6.44591e-07
-1.79968e-07
1.36128e-07
-1.16794e-15
6.54397e-07
-1.75946e-07
9.89125e-08
-1.49185e-15
6.78723e-07
6.43743e-08
-1.58233e-15
6.96634e-07
3.17057e-08
-1.58832e-15
7.08708e-07
-6.98563e-16
-1.55568e-15
7.14804e-07
-3.17057e-08
-1.54256e-15
7.14804e-07
-6.43743e-08
-1.49966e-15
7.08708e-07
-9.89125e-08
-1.11451e-15
6.96634e-07
-1.36128e-07
-7.77513e-16
6.78723e-07
-2.05991e-16
6.54397e-07
-1.75946e-07
1.36128e-07
-4.46497e-08
6.54397e-07
-1.75946e-07
9.89125e-08
-3.95352e-08
6.78723e-07
6.43743e-08
-3.56177e-08
6.96634e-07
3.17057e-08
-3.29975e-08
7.08708e-07
-7.57319e-16
-3.17057e-08
7.14804e-07
-3.17057e-08
-3.17057e-08
7.14804e-07
-6.43743e-08
-3.29975e-08
7.08708e-07
-9.89125e-08
-3.56177e-08
6.96634e-07
-1.36128e-07
-3.95352e-08
6.78723e-07
-4.46497e-08
6.54397e-07
-1.75946e-07
1.40417e-07
-8.9977e-08
6.44591e-07
-1.79968e-07
1.02521e-07
-7.98016e-08
6.70658e-07
6.69029e-08
-7.20554e-08
6.89619e-07
3.29975e-08
-6.69029e-08
7.02313e-07
-6.59175e-16
-6.43743e-08
7.08708e-07
-3.29975e-08
-6.43743e-08
7.08708e-07
-6.69029e-08
-6.69029e-08
7.02313e-07
-1.02521e-07
-7.20554e-08
6.89619e-07
-1.40417e-07
-7.98016e-08
6.70658e-07
-8.9977e-08
6.44591e-07
-1.79968e-07
1.4936e-07
-1.35875e-07
6.24661e-07
-1.88692e-07
1.09925e-07
-1.21076e-07
6.54401e-07
7.20554e-08
-1.09925e-07
6.75611e-07
3.56177e-08
-1.02521e-07
6.89619e-07
-5.2255e-16
-9.89125e-08
6.96634e-07
-3.56177e-08
-9.89125e-08
6.96634e-07
-7.20554e-08
-1.02521e-07
6.89619e-07
-1.09925e-07
-1.09925e-07
6.75611e-07
-1.4936e-07
-1.21076e-07
6.54401e-07
-1.35875e-07
6.24661e-07
-1.88692e-07
1.62828e-07
-1.83783e-07
5.93633e-07
-1.9917e-07
1.21076e-07
-1.62828e-07
6.29347e-07
7.98016e-08
-1.4936e-07
6.54401e-07
3.95352e-08
-1.40417e-07
6.70658e-07
-4.32532e-16
-1.36128e-07
6.78723e-07
-3.95352e-08
-1.36128e-07
6.78723e-07
-7.98016e-08
-1.40417e-07
6.70658e-07
-1.21076e-07
-1.4936e-07
6.54401e-07
-1.62828e-07
-1.62828e-07
6.29347e-07
-1.83783e-07
5.93633e-07
-1.9917e-07
1.83783e-07
5.49902e-07
-2.23725e-07
-2.23725e-07
1.35875e-07
5.93633e-07
-1.9917e-07
8.9977e-08
6.24661e-07
-1.88692e-07
4.46497e-08
6.44591e-07
-1.79968e-07
-4.55167e-16
6.54397e-07
-1.75946e-07
-4.46497e-08
6.54397e-07
-1.75946e-07
-8.9977e-08
6.44591e-07
-1.79968e-07
-1.35875e-07
6.24661e-07
-1.88692e-07
-1.83783e-07
5.93633e-07
-1.9917e-07
5.49902e-07
-2.23725e-07
-2.23725e-07
1.31922e-07
1.31922e-07
5.8681e-07
-1.50376e-07
-1.50376e-07
1.04034e-07
1.29702e-07
6.43025e-07
-1.51207e-07
7.11587e-08
1.26109e-07
6.81695e-07
-1.50268e-07
3.59469e-08
1.22605e-07
7.05599e-07
-1.48401e-07
5.1338e-16
1.20738e-07
7.17027e-07
-1.47422e-07
-3.59469e-08
1.20738e-07
7.17027e-07
-1.47422e-07
-7.11587e-08
1.22605e-07
7.05599e-07
-1.48401e-07
-1.04034e-07
1.26109e-07
6.81695e-07
-1.50268e-07
-1.31922e-07
1.29702e-07
6.43025e-07
-1.51207e-07
1.31922e-07
5.8681e-07
-1.50376e-07
-1.50376e-07
1.29702e-07
1.04034e-07
6.43025e-07
-1.51207e-07
1.00097e-07
1.00097e-07
6.88557e-07
6.73825e-08
9.55336e-08
7.17691e-07
3.37256e-08
9.17742e-08
7.35147e-07
-9.59251e-18
8.97979e-08
7.43389e-07
-3.37256e-08
8.97979e-08
7.43389e-07
-6.73825e-08
9.17742e-08
7.35147e-07
-1.00097e-07
9.55336e-08
7.17691e-07
-1.29702e-07
1.00097e-07
6.88557e-07
1.04034e-07
6.43025e-07
-1.51207e-07
1.26109e-07
7.11587e-08
6.81695e-07
-1.50268e-07
9.55336e-08
6.73825e-08
7.17691e-07
6.34646e-08
6.34646e-08
7.3975e-07
3.15426e-08
6.04764e-08
7.52838e-07
-4.09646e-16
5.8934e-08
7.5904e-07
-3.15426e-08
5.8934e-08
7.5904e-07
-6.34646e-08
6.04764e-08
7.52838e-07
-9.55336e-08
6.34646e-08
7.3975e-07
-1.26109e-07
6.73825e-08
7.17691e-07
7.11587e-08
6.81695e-07
-1.50268e-07
1.22605e-07
3.59469e-08
7.05599e-07
-1.48401e-07
9.17742e-08
3.37256e-08
7.35147e-07
6.04764e-08
3.15426e-08
7.52838e-07
2.99326e-08
2.99326e-08
7.63401e-07
-7.45296e-16
2.91101e-08
7.68465e-07
-2.99326e-08
2.91101e-08
7.68465e-07
-6.04764e-08
2.99326e-08
7.63401e-07
-9.17742e-08
3.15426e-08
7.52838e-07
-1.22605e-07
3.37256e-08
7.35147e-07
3.59469e-08
7.05599e-07
-1.48401e-07
1.20738e-07
-1.002e-15
7.17027e-07
-1.47422e-07
8.97979e-08
-1.41468e-15
7.43389e-07
5.8934e-08
-1.56218e-15
7.5904e-07
2.91101e-08
-1.61598e-15
7.68465e-07
-6.58235e-16
-1.69432e-15
7.73024e-07
-2.91101e-08
-1.56937e-15
7.73024e-07
-5.8934e-08
-1.36808e-15
7.68465e-07
-8.97979e-08
-1.10323e-15
7.5904e-07
-1.20738e-07
-6.22171e-16
7.43389e-07
6.89289e-16
7.17027e-07
-1.47422e-07
1.20738e-07
-3.59469e-08
7.17027e-07
-1.47422e-07
8.97979e-08
-3.37256e-08
7.43389e-07
5.8934e-08
-3.15426e-08
7.5904e-07
2.91101e-08
-2.99326e-08
7.68465e-07
-5.55477e-16
-2.91101e-08
7.73024e-07
-2.91101e-08
-2.91101e-08
7.73024e-07
-5.8934e-08
-2.99326e-08
7.68465e-07
-8.97979e-08
-3.15426e-08
7.5904e-07
-1.20738e-07
-3.37256e-08
7.43389e-07
-3.59469e-08
7.17027e-07
-1.47422e-07
1.22605e-07
-7.11587e-08
7.05599e-07
-1.48401e-07
9.17742e-08
-6.73825e-08
7.35147e-07
6.04764e-08
-6.34646e-08
7.52838e-07
2.99326e-08
-6.04764e-08
7.63401e-07
-5.93748e-16
-5.8934e-08
7.68465e-07
-2.99326e-08
-5.8934e-08
7.68465e-07
-6.04764e-08
-6.04764e-08
7.63401e-07
-9.17742e-08
-6.34646e-08
7.52838e-07
-1.22605e-07
-6.73825e-08
7.35147e-07
-7.11587e-08
7.05599e-07
-1.48401e-07
1.26109e-07
-1.04034e-07
6.81695e-07
-1.50268e-07
9.55336e-08
-1.00097e-07
7.17691e-07
6.34646e-08
-9.55336e-08
7.3975e-07
3.15426e-08
-9.17742e-08
7.52838e-07
-8.33901e-16
-8.97979e-08
7.5904e-07
-3.15426e-08
-8.97979e-08
7.5904e-07
-6.34646e-08
-9.17742e-08
7.52838e-07
-9.55336e-08
-9.55336e-08
7.3975e-07
-1.26109e-07
-1.00097e-07
7.17691e-07
-1.04034e-07
6.81695e-07
-1.50268e-07
1.29702e-07
-1.31922e-07
6.43025e-07
-1.51207e-07
1.00097e-07
-1.29702e-07
6.88557e-07
6.73825e-08
-1.26109e-07
7.17691e-07
3.37256e-08
-1.22605e-07
7.35147e-07
-8.15835e-16
-1.20738e-07
7.43389e-07
-3.37256e-08
-1.20738e-07
7.43389e-07
-6.73825e-08
-1.22605e-07
7.35147e-07
-1.00097e-07
-1.26109e-07
7.17691e-07
-1.29702e-07
-1.29702e-07
6.88557e-07
-1.31922e-07
6.43025e-07
-1.51207e-07
1.31922e-07
5.8681e-07
-1.50376e-07
-1.50376e-07
1.04034e-07
6.43025e-07
-1.51207e-07
7.11587e-08
6.81695e-07
-1.50268e-07
3.59469e-08
7.05599e-07
-1.48401e-07
-6.10151e-16
7.17027e-07
-1.47422e-07
-3.59469e-08
7.17027e-07
-1.47422e-07
-7.11587e-08
7.05599e-07
-1.48401e-07
-1.04034e-07
6.81695e-07
-1.50268e-07
-1.31922e-07
6.43025e-07
-1.51207e-07
5.8681e-07
-1.50376e-07
-1.50376e-07
1.05292e-07
1.05292e-07
5.96832e-07
-1.10303e-07
-1.10303e-07
8.8482e-08
1.11469e-07
6.67053e-07
-1.18687e-07
6.30936e-08
1.13882e-07
7.16134e-07
-1.22933e-07
3.26815e-08
1.14197e-07
7.46624e-07
-1.24809e-07
-2.37761e-16
1.14071e-07
7.61165e-07
-1.25527e-07
-3.26815e-08
1.14071e-07
7.61165e-07
-1.25527e-07
-6.30936e-08
1.14197e-07
7.46624e-07
-1.24809e-07
-8.8482e-08
1.13882e-07
7.16134e-07
-1.22933e-07
-1.05292e-07
1.11469e-07
6.67053e-07
-1.18687e-07
1.05292e-07
5.96832e-07
-1.10303e-07
-1.10303e-07
1.11469e-07
8.8482e-08
6.67053e-07
-1.18687e-07
9.18658e-08
9.18658e-08
7.27763e-07
6.46343e-08
9.24011e-08
7.66404e-07
3.31989e-08
9.16871e-08
7.89092e-07
-4.30468e-16
9.10745e-08
7.99584e-07
-3.31989e-08
9.10745e-08
7.99584e-07
-6.46343e-08
9.16871e-08
7.89092e-07
-9.18658e-08
9.24011e-08
7.66404e-07
-1.11469e-07
9.18658e-08
7.27763e-07
8.8482e-08
6.67053e-07
-1.18687e-07
1.13882e-07
6.30936e-08
7.16134e-07
-1.22933e-07
9.24011e-08
6.46343e-08
7.66404e-07
6.42525e-08
6.42525e-08
7.96047e-07
3.27873e-08
6.32885e-08
8.12702e-07
-4.87008e-16
6.26351e-08
8.20267e-07
-3.27873e-08
6.26351e-08
8.20267e-07
-6.42525e-08
6.32885e-08
8.12702e-07
-9.24011e-08
6.42525e-08
7.96047e-07
-1.13882e-07
6.46343e-08
7.66404e-07
6.30936e-08
7.16134e-07
-1.22933e-07
1.14197e-07
3.26815e-08
7.46624e-07
-1.24809e-07
9.16871e-08
3.31989e-08
7.89092e-07
6.32885e-08
3.27873e-08
8.12702e-07
3.21709e-08
3.21709e-08
8.25636e-07
-5.71217e-16
3.17803e-08
8.3149e-07
-3.21709e-08
3.17803e-08
8.3149e-07
-6.32885e-08
3.21709e-08
8.25636e-07
-9.16871e-08
3.27873e-08
8.12702e-07
-1.14197e-07
3.31989e-08
7.89092e-07
3.26815e-08
7.46624e-07
-1.24809e-07
1.14071e-07
-1.21072e-15
7.61165e-07
-1.25527e-07
9.10745e-08
-1.33251e-15
7.99584e-07
6.26351e-08
-1.24742e-15
8.20267e-07
3.17803e-08
-1.38553e-15
8.3149e-07
-4.76438e-16
-1.26703e-15
8.36585e-07
-3.17803e-08
-1.15576e-15
8.36585e-07
-6.26351e-08
-1.21158e-15
8.3149e-07
-9.10745e-08
-1.0545e-15
8.20267e-07
-1.14071e-07
-1.00974e-15
7.99584e-07
-3.27971e-17
7.61165e-07
-1.25527e-07
1.14071e-07
-3.26815e-08
7.61165e-07
-1.25527e-07
9.10745e-08
-3.31989e-08
7.99584e-07
6.26351e-08
-3.27873e-08
8.20267e-07
3.17803e-08
-3.21709e-08
8.3149e-07
-3.85515e-16
-3.17804e-08
8.36585e-07
-3.17803e-08
-3.17804e-08
8.36585e-07
-6.26351e-08
-3.21709e-08
8.3149e-07
-9.10745e-08
-3.27873e-08
8.20267e-07
-1.14071e-07
-3.31989e-08
7.99584e-07
-3.26815e-08
7.61165e-07
-1.25527e-07
1.14197e-07
-6.30936e-08
7.46624e-07
-1.24809e-07
9.16871e-08
-6.46343e-08
7.89092e-07
6.32885e-08
-6.42525e-08
8.12702e-07
3.21709e-08
-6.32885e-08
8.25636e-07
-3.7164e-16
-6.26351e-08
8.3149e-07
-3.21709e-08
-6.26351e-08
8.3149e-07
-6.32885e-08
-6.32885e-08
8.25636e-07
-9.16871e-08
-6.42525e-08
8.12702e-07
-1.14197e-07
-6.46343e-08
7.89092e-07
-6.30936e-08
7.46624e-07
-1.24809e-07
1.13882e-07
-8.8482e-08
7.16134e-07
-1.22933e-07
9.24011e-08
-9.18658e-08
7.66404e-07
6.42525e-08
-9.24011e-08
7.96047e-07
3.27873e-08
-9.16871e-08
8.12702e-07
-5.05508e-16
-9.10745e-08
8.20267e-07
-3.27873e-08
-9.10745e-08
8.20267e-07
-6.42525e-08
-9.16871e-08
8.12702e-07
-9.24011e-08
-9.24011e-08
7.96047e-07
-1.13882e-07
-9.18658e-08
7.66404e-07
-8.8482e-08
7.16134e-07
-1.22933e-07
1.11469e-07
-1.05292e-07
6.67053e-07
-1.18687e-07
9.18658e-08
-1.11469e-07
7.27763e-07
6.46343e-08
-1.13882e-07
7.66404e-07
3.31989e-08
-1.14197e-07
7.89092e-07
-7.20766e-16
-1.14071e-07
7.99584e-07
-3.31989e-08
-1.14071e-07
7.99584e-07
-6.46343e-08
-1.14197e-07
7.89092e-07
-9.18658e-08
-1.13882e-07
7.66404e-07
-1.11469e-07
-1.11469e-07
7.27763e-07
-1.05292e-07
6.67053e-07
-1.18687e-07
1.05292e-07
5.96832e-07
-1.10303e-07
-1.10303e-07
8.8482e-08
6.67053e-07
-1.18687e-07
6.30936e-08
7.16134e-07
-1.22933e-07
3.26815e-08
7.46624e-07
-1.24809e-07
-5.16118e-16
7.61165e-07
-1.25527e-07
-3.26815e-08
7.61165e-07
-1.25527e-07
-6.30936e-08
7.46624e-07
-1.24809e-07
-8.8482e-08
7.16134e-07
-1.22933e-07
-1.05292e-07
6.67053e-07
-1.18687e-07
5.96832e-07
-1.10303e-07
-1.10303e-07
5.62956e-08
5.62956e-08
5.95907e-07
-5.58332e-08
-5.58332e-08
4.96567e-08
6.40129e-08
6.73639e-07
-6.39601e-08
3.66018e-08
6.87095e-08
7.29346e-07
-6.88665e-08
1.93573e-08
7.11944e-08
7.64522e-07
-7.18484e-08
-2.98537e-16
7.22473e-08
7.81439e-07
-7.3164e-08
-1.93573e-08
7.22473e-08
7.81439e-07
-7.3164e-08
-3.66018e-08
7.11944e-08
7.64522e-07
-7.18484e-08
-4.96567e-08
6.87095e-08
7.29346e-07
-6.88665e-08
-5.62956e-08
6.40129e-08
6.73639e-07
-6.39601e-08
5.62956e-08
5.95907e-07
-5.58332e-08
-5.58332e-08
6.40129e-08
4.96567e-08
6.73639e-07
-6.39601e-08
5.55351e-08
5.55351e-08
7.44719e-07
4.05031e-08
5.89671e-08
7.91178e-07
2.12629e-08
6.06385e-08
8.18888e-07
1.93482e-16
6.12978e-08
8.31797e-07
-2.12629e-08
6.12978e-08
8.31797e-07
-4.05031e-08
6.06385e-08
8.18888e-07
-5.55351e-08
5.89671e-08
7.91178e-07
-6.40129e-08
5.55351e-08
7.44719e-07
4.96567e-08
6.73639e-07
-6.39601e-08
6.87095e-08
3.66018e-08
7.29346e-07
-6.88665e-08
5.89671e-08
4.05031e-08
7.91178e-07
4.26283e-08
4.26283e-08
8.28725e-07
2.22601e-08
4.35946e-08
8.50114e-07
2.7661e-16
4.39486e-08
8.59876e-07
-2.22601e-08
4.39486e-08
8.59876e-07
-4.26283e-08
4.35946e-08
8.50114e-07
-5.89671e-08
4.26283e-08
8.28725e-07
-6.87095e-08
4.05031e-08
7.91178e-07
3.66018e-08
7.29346e-07
-6.88665e-08
7.11944e-08
1.93573e-08
7.64522e-07
-7.18484e-08
6.06385e-08
2.12629e-08
8.18888e-07
4.35946e-08
2.22601e-08
8.50114e-07
2.26974e-08
2.26974e-08
8.67431e-07
-1.11359e-17
2.28503e-08
8.75286e-07
-2.26974e-08
2.28503e-08
8.75286e-07
-4.35946e-08
2.26974e-08
8.67431e-07
-6.06385e-08
2.22601e-08
8.50114e-07
-7.11944e-08
2.12629e-08
8.18888e-07
1.93573e-08
7.64522e-07
-7.18484e-08
7.22473e-08
-9.30524e-16
7.81439e-07
-7.3164e-08
6.12978e-08
-4.99935e-16
8.31797e-07
4.39486e-08
-3.66113e-16
8.59876e-07
2.28503e-08
-5.12632e-16
8.75286e-07
-3.78252e-17
-5.38605e-16
8.82285e-07
-2.28503e-08
-4.87539e-16
8.82285e-07
-4.39486e-08
-7.60466e-16
8.75286e-07
-6.12978e-08
-8.91908e-16
8.59876e-07
-7.22473e-08
-1.18651e-15
8.31797e-07
-8.65207e-16
7.81439e-07
-7.3164e-08
7.22473e-08
-1.93573e-08
7.81439e-07
-7.3164e-08
6.12978e-08
-2.12629e-08
8.31797e-07
4.39486e-08
-2.22601e-08
8.59876e-07
2.28503e-08
-2.26974e-08
8.75286e-07
-6.42768e-17
-2.28503e-08
8.82285e-07
-2.28503e-08
-2.28503e-08
8.82285e-07
-4.39486e-08
-2.26974e-08
8.75286e-07
-6.12978e-08
-2.22601e-08
8.59876e-07
-7.22473e-08
-2.12629e-08
8.31797e-07
-1.93573e-08
7.81439e-07
-7.3164e-08
7.11944e-08
-3.66018e-08
7.64522e-07
-7.18484e-08
6.06385e-08
-4.05031e-08
8.18888e-07
4.35946e-08
-4.26283e-08
8.50114e-07
2.26974e-08
-4.35946e-08
8.67431e-07
-1.47056e-16
-4.39486e-08
8.75286e-07
-2.26974e-08
-4.39486e-08
8.75286e-07
-4.35946e-08
-4.35946e-08
8.67431e-07
-6.06385e-08
-4.26283e-08
8.50114e-07
-7.11944e-08
-4.05031e-08
8.18888e-07
-3.66018e-08
7.64522e-07
-7.18484e-08
6.87095e-08
-4.96567e-08
7.29346e-07
-6.88665e-08
5.89671e-08
-5.55351e-08
7.91178e-07
4.26283e-08
-5.89671e-08
8.28725e-07
2.22601e-08
-6.06385e-08
8.50114e-07
-4.16454e-16
-6.12978e-08
8.59876e-07
-2.22601e-08
-6.12978e-08
8.59876e-07
-4.26283e-08
-6.06385e-08
8.50114e-07
-5.89671e-08
-5.89671e-08
8.28725e-07
-6.87095e-08
-5.55351e-08
7.91178e-07
-4.96567e-08
7.29346e-07
-6.88665e-08
6.40129e-08
-5.62956e-08
6.73639e-07
-6.39601e-08
5.55351e-08
-6.40129e-08
7.44719e-07
4.05031e-08
-6.87095e-08
7.91178e-07
2.12629e-08
-7.11944e-08
8.18888e-07
-9.9992e-16
-7.22473e-08
8.31797e-07
-2.12629e-08
-7.22473e-08
8.31797e-07
-4.05031e-08
-7.11944e-08
8.18888e-07
-5.55351e-08
-6.87095e-08
7.91178e-07
-6.40129e-08
-6.40129e-08
7.44719e-07
-5.62956e-08
6.73639e-07
-6.39601e-08
5.62956e-08
5.95907e-07
-5.58332e-08
-5.58332e-08
4.96567e-08
6.73639e-07
-6.39601e-08
3.66018e-08
7.29346e-07
-6.88665e-08
1.93573e-08
7.64522e-07
-7.18484e-08
-6.33407e-16
7.81439e-07
-7.3164e-08
-1.93573e-08
7.81439e-07
-7.3164e-08
-3.66018e-08
7.64522e-07
-7.18484e-08
-4.96567e-08
7.29346e-07
-6.88665e-08
-5.62956e-08
6.73639e-07
-6.39601e-08
5.95907e-07
-5.58332e-08
-5.58332e-08
3.01884e-08
3.01884e-08
5.92953e-07
-2.87112e-08
-2.87112e-08
2.73812e-08
3.54819e-08
6.74542e-07
-3.35773e-08
2.06341e-08
3.91706e-08
7.33941e-07
-3.70187e-08
1.10641e-08
4.1408e-08
7.71915e-07
-3.92312e-08
-2.44029e-16
4.24353e-08
7.90314e-07
-4.02466e-08
-1.10641e-08
4.24353e-08
7.90314e-07
-4.02466e-08
-2.06342e-08
4.1408e-08
7.71915e-07
-3.92312e-08
-2.73812e-08
3.91706e-08
7.33941e-07
-3.70187e-08
-3.01884e-08
3.54819e-08
6.74542e-07
-3.35773e-08
3.01884e-08
5.92953e-07
-2.87112e-08
-2.87112e-08
3.54819e-08
2.73812e-08
6.74542e-07
-3.35773e-08
3.19904e-08
3.19904e-08
7.51702e-07
2.39736e-08
3.51344e-08
8.03231e-07
1.27964e-08
3.69731e-08
8.345e-07
1.79037e-16
3.78043e-08
8.49224e-07
-1.27964e-08
3.78043e-08
8.49224e-07
-2.39736e-08
3.69731e-08
8.345e-07
-3.19904e-08
3.51344e-08
8.03231e-07
-3.54819e-08
3.19904e-08
7.51702e-07
2.73812e-08
6.74542e-07
-3.35773e-08
3.91706e-08
2.06341e-08
7.33941e-07
-3.70187e-08
3.51344e-08
2.39736e-08
8.03231e-07
2.61993e-08
2.61993e-08
8.46595e-07
1.39359e-08
2.74718e-08
8.71879e-07
2.81326e-16
2.80374e-08
8.83579e-07
-1.39359e-08
2.80374e-08
8.83579e-07
-2.61993e-08
2.74718e-08
8.71879e-07
-3.51344e-08
2.61993e-08
8.46595e-07
-3.91706e-08
2.39736e-08
8.03231e-07
2.06341e-08
7.33941e-07
-3.70187e-08
4.1408e-08
1.10641e-08
7.71915e-07
-3.92312e-08
3.69731e-08
1.27964e-08
8.345e-07
2.74718e-08
1.39359e-08
8.71879e-07
1.45822e-08
1.45822e-08
8.9321e-07
7.20453e-17
1.48668e-08
9.03039e-07
-1.45822e-08
1.48668e-08
9.03039e-07
-2.74718e-08
1.45822e-08
8.9321e-07
-3.69731e-08
1.39359e-08
8.71879e-07
-4.1408e-08
1.27964e-08
8.345e-07
1.10641e-08
7.71915e-07
-3.92312e-08
4.24353e-08
-4.98473e-16
7.90314e-07
-4.02466e-08
3.78043e-08
-1.5094e-16
8.49224e-07
2.80374e-08
-4.9406e-17
8.83579e-07
1.48668e-08
-1.64465e-16
9.03039e-07
2.35986e-16
-1.23818e-16
9.12019e-07
-1.48668e-08
1.11338e-16
9.12019e-07
-2.80374e-08
8.93887e-17
9.03039e-07
-3.78043e-08
-2.0263e-16
8.83579e-07
-4.24353e-08
-7.17739e-16
8.49224e-07
-6.90985e-16
7.90314e-07
-4.02466e-08
4.24353e-08
-1.10641e-08
7.90314e-07
-4.02466e-08
3.78043e-08
-1.27964e-08
8.49224e-07
2.80374e-08
-1.39359e-08
8.83579e-07
1.48668e-08
-1.45822e-08
9.03039e-07
3.60946e-16
-1.48668e-08
9.12019e-07
-1.48668e-08
-1.48668e-08
9.12019e-07
-2.80374e-08
-1.45822e-08
9.03039e-07
-3.78043e-08
-1.39359e-08
8.83579e-07
-4.24353e-08
-1.27964e-08
8.49224e-07
-1.10641e-08
7.90314e-07
-4.02466e-08
4.1408e-08
-2.06342e-08
7.71915e-07
-3.92312e-08
3.69731e-08
-2.39736e-08
8.345e-07
2.74718e-08
-2.61993e-08
8.71879e-07
1.45822e-08
-2.74718e-08
8.9321e-07
2.94751e-16
-2.80374e-08
9.03039e-07
-1.45822e-08
-2.80374e-08
9.03039e-07
-2.74718e-08
-2.74718e-08
8.9321e-07
-3.69731e-08
-2.61993e-08
8.71879e-07
-4.1408e-08
-2.39736e-08
8.345e-07
-2.06342e-08
7.71915e-07
-3.92312e-08
3.91706e-08
-2.73812e-08
7.33941e-07
-3.70187e-08
3.51344e-08
-3.19904e-08
8.03231e-07
2.61993e-08
-3.51344e-08
8.46595e-07
1.39359e-08
-3.69731e-08
8.71879e-07
-4.37175e-17
-3.78043e-08
8.83579e-07
-1.39359e-08
-3.78043e-08
8.83579e-07
-2.61993e-08
-3.69731e-08
8.71879e-07
-3.51344e-08
-3.51344e-08
8.46595e-07
-3.91706e-08
-3.19904e-08
8.03231e-07
-2.73812e-08
7.33941e-07
-3.70187e-08
3.54819e-08
-3.01884e-08
6.74542e-07
-3.35773e-08
3.19904e-08
-3.54819e-08
7.51702e-07
2.39736e-08
-3.91706e-08
8.03231e-07
1.27964e-08
-4.1408e-08
8.345e-07
-6.17387e-16
-4.24353e-08
8.49224e-07
-1.27964e-08
-4.24353e-08
8.49224e-07
-2.39736e-08
-4.1408e-08
8.345e-07
-3.19904e-08
-3.91706e-08
8.03231e-07
-3.54819e-08
-3.54819e-08
7.51702e-07
-3.01884e-08
6.74542e-07
-3.35773e-08
3.01884e-08
5.92953e-07
-2.87112e-08
-2.87112e-08
2.73812e-08
6.74542e-07
-3.35773e-08
2.06341e-08
7.33941e-07
-3.70187e-08
1.10641e-08
7.71915e-07
-3.92312e-08
-3.12754e-16
7.90314e-07
-4.02466e-08
-1.10641e-08
7.90314e-07
-4.02466e-08
-2.06342e-08
7.71915e-07
-3.92312e-08
-2.73812e-08
7.33941e-07
-3.70187e-08
-3.01884e-08
6.74542e-07
-3.35773e-08
5.92953e-07
-2.87112e-08
-2.87112e-08
1.32512e-08
1.32512e-08
5.90222e-07
-1.1886e-08
-1.1886e-08
1.25878e-08
1.6529e-08
6.7322e-07
-1.45443e-08
9.80957e-09
1.90689e-08
7.34269e-07
-1.66189e-08
5.36796e-09
2.07587e-08
7.73646e-07
-1.80473e-08
-1.24369e-16
2.15792e-08
7.92835e-07
-1.87325e-08
-5.36796e-09
2.15792e-08
7.92835e-07
-1.87325e-08
-9.80957e-09
2.07587e-08
7.73646e-07
-1.80473e-08
-1.25878e-08
1.90689e-08
7.34269e-07
-1.66189e-08
-1.32512e-08
1.6529e-08
6.7322e-07
-1.45443e-08
1.32512e-08
5.90222e-07
-1.1886e-08
-1.1886e-08
1.6529e-08
1.25878e-08
6.7322e-07
-1.45443e-08
1.57428e-08
1.57428e-08
7.53274e-07
1.22558e-08
1.81604e-08
8.07626e-07
6.69141e-09
1.97291e-08
8.41094e-07
4.02145e-16
2.04864e-08
8.57008e-07
-6.69141e-09
2.04864e-08
8.57008e-07
-1.22558e-08
1.97291e-08
8.41094e-07
-1.57428e-08
1.81604e-08
8.07626e-07
-1.6529e-08
1.57428e-08
7.53274e-07
1.25878e-08
6.7322e-07
-1.45443e-08
1.90689e-08
9.80957e-09
7.34269e-07
-1.66189e-08
1.81604e-08
1.22558e-08
8.07626e-07
1.41054e-08
1.41054e-08
8.54705e-07
7.68234e-09
1.52848e-08
8.82746e-07
5.80228e-16
1.5848e-08
8.959e-07
-7.68233e-09
1.5848e-08
8.959e-07
-1.41054e-08
1.52848e-08
8.82746e-07
-1.81604e-08
1.41054e-08
8.54705e-07
-1.90689e-08
1.22558e-08
8.07626e-07
9.80957e-09
7.34269e-07
-1.66189e-08
2.07587e-08
5.36796e-09
7.73646e-07
-1.80473e-08
1.97291e-08
6.69141e-09
8.41094e-07
1.52848e-08
7.68234e-09
8.82746e-07
8.30897e-09
8.30897e-09
9.07162e-07
3.25823e-16
8.60603e-09
9.1859e-07
-8.30897e-09
8.60603e-09
9.1859e-07
-1.52848e-08
8.30897e-09
9.07162e-07
-1.97291e-08
7.68233e-09
8.82746e-07
-2.07587e-08
6.69141e-09
8.41094e-07
5.36796e-09
7.73646e-07
-1.80473e-08
2.15792e-08
-4.34117e-16
7.92835e-07
-1.87325e-08
2.04864e-08
-4.96006e-17
8.57008e-07
1.5848e-08
2.41257e-16
8.959e-07
8.60603e-09
2.12426e-16
9.1859e-07
3.26181e-16
1.77936e-16
9.29231e-07
-8.60602e-09
2.94215e-16
9.29231e-07
-1.5848e-08
1.22249e-16
9.1859e-07
-2.04864e-08
-1.53721e-16
8.959e-07
-2.15792e-08
-5.14226e-16
8.57008e-07
-4.66847e-16
7.92835e-07
-1.87325e-08
2.15792e-08
-5.36796e-09
7.92835e-07
-1.87325e-08
2.04864e-08
-6.69141e-09
8.57008e-07
1.5848e-08
-7.68233e-09
8.959e-07
8.60603e-09
-8.30897e-09
9.1859e-07
3.8483e-16
-8.60602e-09
9.29231e-07
-8.60602e-09
-8.60602e-09
9.29231e-07
-1.5848e-08
-8.30897e-09
9.1859e-07
-2.04864e-08
-7.68234e-09
8.959e-07
-2.15792e-08
-6.69141e-09
8.57008e-07
-5.36796e-09
7.92835e-07
-1.87325e-08
2.07587e-08
-9.80957e-09
7.73646e-07
-1.80473e-08
1.97291e-08
-1.22558e-08
8.41094e-07
1.52848e-08
-1.41054e-08
8.82746e-07
8.30897e-09
-1.52848e-08
9.07162e-07
2.75876e-16
-1.5848e-08
9.1859e-07
-8.30897e-09
-1.5848e-08
9.1859e-07
-1.52848e-08
-1.52848e-08
9.07162e-07
-1.97291e-08
-1.41054e-08
8.82746e-07
-2.07587e-08
-1.22558e-08
8.41094e-07
-9.80957e-09
7.73646e-07
-1.80473e-08
1.90689e-08
-1.25878e-08
7.34269e-07
-1.66189e-08
1.81604e-08
-1.57428e-08
8.07626e-07
1.41054e-08
-1.81604e-08
8.54705e-07
7.68233e-09
-1.97291e-08
8.82746e-07
-1.50096e-17
-2.04864e-08
8.959e-07
-7.68233e-09
-2.04864e-08
8.959e-07
-1.41054e-08
-1.97291e-08
8.82746e-07
-1.81604e-08
-1.81604e-08
8.54705e-07
-1.90689e-08
-1.57428e-08
8.07626e-07
-1.25878e-08
7.34269e-07
-1.66189e-08
1.6529e-08
-1.32512e-08
6.7322e-07
-1.45443e-08
1.57428e-08
-1.6529e-08
7.53274e-07
1.22558e-08
-1.90689e-08
8.07626e-07
6.69141e-09
-2.07587e-08
8.41094e-07
-4.07101e-16
-2.15792e-08
8.57008e-07
-6.69141e-09
-2.15792e-08
8.57008e-07
-1.22558e-08
-2.07587e-08
8.41094e-07
-1.57428e-08
-1.90689e-08
8.07626e-07
-1.6529e-08
-1.6529e-08
7.53274e-07
-1.32512e-08
6.7322e-07
-1.45443e-08
1.32512e-08
5.90222e-07
-1.1886e-08
-1.1886e-08
1.25878e-08
6.7322e-07
-1.45443e-08
9.80957e-09
7.34269e-07
-1.66189e-08
5.36796e-09
7.73646e-07
-1.80473e-08
-2.21435e-16
7.92835e-07
-1.87325e-08
-5.36796e-09
7.92835e-07
-1.87325e-08
-9.80957e-09
7.73646e-07
-1.80473e-08
-1.25878e-08
7.34269e-07
-1.66189e-08
-1.32512e-08
6.7322e-07
-1.45443e-08
5.90222e-07
-1.1886e-08
-1.1886e-08
4.94696e-09
4.94696e-09
5.88636e-07
-4.15395e-09
-4.15395e-09
4.9441e-09
6.5877e-09
6.71967e-07
-5.33164e-09
3.99467e-09
7.98117e-09
7.33576e-07
-6.33876e-09
2.23372e-09
8.97573e-09
7.73507e-07
-7.07631e-09
6.724e-21
9.47834e-09
7.93034e-07
-7.44287e-09
-2.23372e-09
9.47834e-09
7.93034e-07
-7.44287e-09
-3.99467e-09
8.97573e-09
7.73507e-07
-7.07631e-09
-4.9441e-09
7.98117e-09
7.33576e-07
-6.33876e-09
-4.94696e-09
6.5877e-09
6.71967e-07
-5.33164e-09
4.94696e-09
5.88636e-07
-4.15395e-09
-4.15395e-09
6.5877e-09
4.9441e-09
6.71967e-07
-5.33164e-09
6.67128e-09
6.67128e-09
7.53107e-07
5.41436e-09
8.12293e-09
8.08741e-07
3.02835e-09
9.13514e-09
8.43321e-07
2.43769e-16
9.64423e-09
8.59871e-07
-3.02835e-09
9.64423e-09
8.59871e-07
-5.41436e-09
9.13514e-09
8.43321e-07
-6.67128e-09
8.12293e-09
8.08741e-07
-6.5877e-09
6.67128e-09
7.53107e-07
4.9441e-09
6.71967e-07
-5.33164e-09
7.98117e-09
3.99467e-09
7.33576e-07
-6.33876e-09
8.12293e-09
5.41436e-09
8.08741e-07
6.59108e-09
6.59108e-09
8.57768e-07
3.67952e-09
7.39656e-09
8.87396e-07
3.22846e-16
7.79724e-09
9.01427e-07
-3.67952e-09
7.79724e-09
9.01427e-07
-6.59108e-09
7.39656e-09
8.87396e-07
-8.12293e-09
6.59108e-09
8.57768e-07
-7.98117e-09
5.41436e-09
8.08741e-07
3.99467e-09
7.33576e-07
-6.33876e-09
8.97573e-09
2.23372e-09
7.73507e-07
-7.07631e-09
9.13514e-09
3.02835e-09
8.43321e-07
7.39656e-09
3.67952e-09
8.87396e-07
4.12051e-09
4.12051e-09
9.13714e-07
2.4601e-16
4.33817e-09
9.26169e-07
-4.12051e-09
4.33817e-09
9.26169e-07
-7.39656e-09
4.12051e-09
9.13714e-07
-9.13514e-09
3.67952e-09
8.87396e-07
-8.97573e-09
3.02835e-09
8.43321e-07
2.23372e-09
7.73507e-07
-7.07631e-09
9.47834e-09
-3.59122e-16
7.93034e-07
-7.44287e-09
9.64423e-09
-1.26718e-16
8.59871e-07
7.79724e-09
1.66848e-16
9.01427e-07
4.33817e-09
2.44222e-16
9.26169e-07
3.60554e-16
3.15637e-16
9.37907e-07
-4.33817e-09
4.08327e-16
9.37907e-07
-7.79724e-09
2.48198e-16
9.26169e-07
-9.64423e-09
4.37585e-17
9.01427e-07
-9.47834e-09
-2.40118e-16
8.59871e-07
-3.19028e-16
7.93034e-07
-7.44287e-09
9.47834e-09
-2.23372e-09
7.93034e-07
-7.44287e-09
9.64423e-09
-3.02835e-09
8.59871e-07
7.79724e-09
-3.67952e-09
9.01427e-07
4.33817e-09
-4.12051e-09
9.26169e-07
4.49502e-16
-4.33817e-09
9.37907e-07
-4.33817e-09
-4.33817e-09
9.37907e-07
-7.79724e-09
-4.12051e-09
9.26169e-07
-9.64423e-09
-3.67952e-09
9.01427e-07
-9.47834e-09
-3.02835e-09
8.59871e-07
-2.23372e-09
7.93034e-07
-7.44287e-09
8.97573e-09
-3.99467e-09
7.73507e-07
-7.07631e-09
9.13514e-09
-5.41436e-09
8.43321e-07
7.39656e-09
-6.59108e-09
8.87396e-07
4.12051e-09
-7.39656e-09
9.13714e-07
3.12538e-16
-7.79724e-09
9.26169e-07
-4.12051e-09
-7.79724e-09
9.26169e-07
-7.39656e-09
-7.39656e-09
9.13714e-07
-9.13514e-09
-6.59108e-09
8.87396e-07
-8.97573e-09
-5.41436e-09
8.43321e-07
-3.99467e-09
7.73507e-07
-7.07631e-09
7.98117e-09
-4.9441e-09
7.33576e-07
-6.33876e-09
8.12293e-09
-6.67128e-09
8.08741e-07
6.59108e-09
-8.12293e-09
8.57768e-07
3.67952e-09
-9.13514e-09
8.87396e-07
6.48456e-17
-9.64423e-09
9.01427e-07
-3.67952e-09
-9.64423e-09
9.01427e-07
-6.59108e-09
-9.13514e-09
8.87396e-07
-8.12293e-09
-8.12293e-09
8.57768e-07
-7.98117e-09
-6.67128e-09
8.08741e-07
-4.9441e-09
7.33576e-07
-6.33876e-09
6.5877e-09
-4.94696e-09
6.71967e-07
-5.33164e-09
6.67128e-09
-6.5877e-09
7.53107e-07
5.41436e-09
-7.98117e-09
8.08741e-07
3.02835e-09
-8.97573e-09
8.43321e-07
-2.35917e-16
-9.47834e-09
8.59871e-07
-3.02835e-09
-9.47834e-09
8.59871e-07
-5.41436e-09
-8.97573e-09
8.43321e-07
-6.67128e-09
-7.98117e-09
8.08741e-07
-6.5877e-09
-6.5877e-09
7.53107e-07
-4.94696e-09
6.71967e-07
-5.33164e-09
4.94696e-09
5.88636e-07
-4.15395e-09
-4.15395e-09
4.9441e-09
6.71967e-07
-5.33164e-09
3.99467e-09
7.33576e-07
-6.33876e-09
2.23372e-09
7.73507e-07
-7.07631e-09
-2.6831e-16
7.93034e-07
-7.44287e-09
-2.23372e-09
7.93034e-07
-7.44287e-09
-3.99467e-09
7.73507e-07
-7.07631e-09
-4.9441e-09
7.33576e-07
-6.33876e-09
-4.94696e-09
6.71967e-07
-5.33164e-09
5.88636e-07
-4.15395e-09
-4.15395e-09
1.59483e-09
1.59483e-09
5.87867e-07
-1.21048e-09
-1.21048e-09
1.70662e-09
2.31099e-09
6.71215e-07
-1.67052e-09
1.44302e-09
2.96488e-09
7.32973e-07
-2.09776e-09
8.27966e-10
3.45642e-09
7.73091e-07
-2.42511e-09
2.132e-17
3.7121e-09
7.92742e-07
-2.59283e-09
-8.27966e-10
3.7121e-09
7.92742e-07
-2.59283e-09
-1.44302e-09
3.45642e-09
7.73091e-07
-2.42511e-09
-1.70662e-09
2.96488e-09
7.32973e-07
-2.09776e-09
-1.59483e-09
2.31099e-09
6.71215e-07
-1.67052e-09
1.59483e-09
5.87867e-07
-1.21048e-09
-1.21047e-09
2.31099e-09
1.70662e-09
6.71215e-07
-1.67052e-09
2.51934e-09
2.51934e-09
7.5269e-07
2.14205e-09
3.25072e-09
8.08833e-07
1.22942e-09
3.78726e-09
8.43902e-07
2.57179e-16
4.06468e-09
8.60748e-07
-1.22942e-09
4.06468e-09
8.60748e-07
-2.14205e-09
3.78726e-09
8.43902e-07
-2.51934e-09
3.25072e-09
8.08833e-07
-2.31099e-09
2.51934e-09
7.5269e-07
1.70662e-09
6.71215e-07
-1.67052e-09
2.96488e-09
1.44302e-09
7.32973e-07
-2.09776e-09
3.25072e-09
2.14205e-09
8.08833e-07
2.76137e-09
2.76137e-09
8.58747e-07
1.58038e-09
3.20656e-09
8.89158e-07
3.34383e-16
3.43399e-09
9.03638e-07
-1.58038e-09
3.43399e-09
9.03638e-07
-2.76137e-09
3.20656e-09
8.89158e-07
-3.25072e-09
2.76137e-09
8.58747e-07
-2.96488e-09
2.14205e-09
8.08833e-07
1.44302e-09
7.32973e-07
-2.09776e-09
3.45642e-09
8.27965e-10
7.73091e-07
-2.42511e-09
3.78726e-09
1.22942e-09
8.43902e-07
3.20656e-09
1.58038e-09
8.89158e-07
1.82958e-09
1.82958e-09
9.16468e-07
3.0847e-16