/*--------------------------------*- C++ -*----------------------------------*\
| =========                 |                                                 |
| \\      /  F ield         | OpenFOAM: The Open Source CFD Toolbox           |
|  \\    /   O peration     | Version:  2412                                  |
|   \\  /    A nd           | Website:  www.openfoam.com                      |
|    \\/     M anipulation  |                                                 |
\*---------------------------------------------------------------------------*/
FoamFile
{
    version     2.0;
    format      ascii;
    arch        "LSB;label=32;scalar=64";
    class       volVectorField;
    location    "8.6";
    object      U;
}
// * * * * * * * * * * * * * * * * * * * * * * * * * * * * * * * * * * * * * //

dimensions      [0 1 -1 0 0 0 0];

internalField   nonuniform List<vector> 
15000
(
(0.00120502 0.00120502 0.0103864)
(0.000890521 0.00112655 0.0103352)
(0.000607049 0.00109954 0.0102927)
(0.000356544 0.00107317 0.0102651)
(0.000117133 0.00106109 0.0102523)
(-0.000117133 0.00106109 0.0102523)
(-0.000356544 0.00107317 0.0102651)
(-0.000607049 0.00109954 0.0102927)
(-0.000890521 0.00112655 0.0103352)
(-0.00120502 0.00120502 0.0103864)
(0.00112655 0.000890521 0.0103352)
(0.000838818 0.000838818 0.0102698)
(0.000574566 0.000801876 0.0102278)
(0.000335392 0.000775849 0.0102055)
(0.000110098 0.000763309 0.0101962)
(-0.000110098 0.000763309 0.0101962)
(-0.000335392 0.000775849 0.0102055)
(-0.000574566 0.000801876 0.0102278)
(-0.000838818 0.000838818 0.0102698)
(-0.00112655 0.000890521 0.0103352)
(0.00109954 0.000607049 0.0102927)
(0.000801876 0.000574566 0.0102278)
(0.000545527 0.000545527 0.0101939)
(0.000316814 0.000524647 0.010178)
(0.000103807 0.000514205 0.0101717)
(-0.000103807 0.000514205 0.0101717)
(-0.000316814 0.000524647 0.010178)
(-0.000545527 0.000545527 0.0101939)
(-0.000801876 0.000574566 0.0102278)
(-0.00109954 0.000607049 0.0102927)
(0.00107317 0.000356544 0.0102651)
(0.000775849 0.000335392 0.0102055)
(0.000524647 0.000316814 0.010178)
(0.000303408 0.000303408 0.0101658)
(9.92353e-05 0.000296612 0.010161)
(-9.92353e-05 0.000296612 0.010161)
(-0.000303408 0.000303408 0.0101658)
(-0.000524647 0.000316814 0.010178)
(-0.000775849 0.000335392 0.0102055)
(-0.00107317 0.000356544 0.0102651)
(0.00106109 0.000117133 0.0102523)
(0.000763309 0.000110098 0.0101962)
(0.000514205 0.000103807 0.0101717)
(0.000296612 9.92353e-05 0.010161)
(9.69052e-05 9.69052e-05 0.0101566)
(-9.69052e-05 9.69052e-05 0.0101566)
(-0.000296612 9.92353e-05 0.010161)
(-0.000514205 0.000103807 0.0101717)
(-0.000763309 0.000110098 0.0101962)
(-0.00106109 0.000117133 0.0102523)
(0.00106109 -0.000117133 0.0102523)
(0.000763309 -0.000110098 0.0101962)
(0.000514205 -0.000103807 0.0101717)
(0.000296612 -9.92353e-05 0.010161)
(9.69052e-05 -9.69052e-05 0.0101566)
(-9.69052e-05 -9.69052e-05 0.0101566)
(-0.000296612 -9.92353e-05 0.010161)
(-0.000514205 -0.000103807 0.0101717)
(-0.000763309 -0.000110098 0.0101962)
(-0.00106109 -0.000117133 0.0102523)
(0.00107317 -0.000356544 0.0102651)
(0.000775849 -0.000335392 0.0102055)
(0.000524647 -0.000316814 0.010178)
(0.000303408 -0.000303408 0.0101658)
(9.92353e-05 -0.000296612 0.010161)
(-9.92353e-05 -0.000296612 0.010161)
(-0.000303408 -0.000303408 0.0101658)
(-0.000524647 -0.000316814 0.010178)
(-0.000775849 -0.000335392 0.0102055)
(-0.00107317 -0.000356544 0.0102651)
(0.00109954 -0.000607049 0.0102927)
(0.000801876 -0.000574566 0.0102278)
(0.000545527 -0.000545527 0.0101939)
(0.000316814 -0.000524647 0.010178)
(0.000103807 -0.000514205 0.0101717)
(-0.000103807 -0.000514205 0.0101717)
(-0.000316814 -0.000524647 0.010178)
(-0.000545527 -0.000545527 0.0101939)
(-0.000801876 -0.000574566 0.0102278)
(-0.00109954 -0.000607049 0.0102927)
(0.00112655 -0.000890521 0.0103352)
(0.000838818 -0.000838818 0.0102698)
(0.000574566 -0.000801876 0.0102278)
(0.000335392 -0.000775849 0.0102055)
(0.000110098 -0.000763309 0.0101962)
(-0.000110098 -0.000763309 0.0101962)
(-0.000335392 -0.000775849 0.0102055)
(-0.000574566 -0.000801876 0.0102278)
(-0.000838818 -0.000838818 0.0102698)
(-0.00112655 -0.000890521 0.0103352)
(0.00120502 -0.00120502 0.0103864)
(0.000890521 -0.00112655 0.0103352)
(0.000607049 -0.00109954 0.0102927)
(0.000356544 -0.00107317 0.0102651)
(0.000117133 -0.00106109 0.0102523)
(-0.000117133 -0.00106109 0.0102523)
(-0.000356544 -0.00107317 0.0102651)
(-0.000607049 -0.00109954 0.0102927)
(-0.000890521 -0.00112655 0.0103352)
(-0.00120502 -0.00120502 0.0103864)
(0.000827414 0.000827414 0.0126853)
(0.000656722 0.000877443 0.0126561)
(0.000468715 0.000906752 0.0125626)
(0.000280698 0.000918153 0.012472)
(9.29938e-05 0.00092308 0.0124205)
(-9.29938e-05 0.00092308 0.0124205)
(-0.000280698 0.000918153 0.012472)
(-0.000468715 0.000906752 0.0125626)
(-0.000656722 0.000877443 0.0126561)
(-0.000827414 0.000827414 0.0126853)
(0.000877443 0.000656722 0.0126561)
(0.000682701 0.000682701 0.0124921)
(0.000479194 0.000689819 0.0123056)
(0.000282713 0.000687916 0.0121648)
(9.31859e-05 0.000685928 0.0120919)
(-9.31859e-05 0.000685928 0.0120919)
(-0.000282713 0.000687916 0.0121648)
(-0.000479194 0.000689819 0.0123056)
(-0.000682701 0.000682701 0.0124921)
(-0.000877444 0.000656722 0.0126561)
(0.000906752 0.000468715 0.0125626)
(0.000689819 0.000479194 0.0123056)
(0.00047696 0.00047696 0.0120717)
(0.000278499 0.000471094 0.0119102)
(9.14216e-05 0.000467373 0.0118298)
(-9.14216e-05 0.000467373 0.0118298)
(-0.000278499 0.000471094 0.0119102)
(-0.00047696 0.00047696 0.0120717)
(-0.000689819 0.000479194 0.0123056)
(-0.000906752 0.000468715 0.0125626)
(0.000918153 0.000280698 0.012472)
(0.000687916 0.000282713 0.0121648)
(0.000471094 0.000278499 0.0119102)
(0.000273479 0.000273479 0.0117417)
(8.95608e-05 0.00027056 0.0116592)
(-8.95609e-05 0.00027056 0.0116592)
(-0.000273479 0.000273479 0.0117417)
(-0.000471094 0.000278499 0.0119102)
(-0.000687916 0.000282713 0.0121648)
(-0.000918153 0.000280698 0.012472)
(0.00092308 9.29938e-05 0.0124205)
(0.000685928 9.31859e-05 0.0120919)
(0.000467373 9.14216e-05 0.0118298)
(0.00027056 8.95608e-05 0.0116592)
(8.85048e-05 8.85048e-05 0.0115763)
(-8.85048e-05 8.85048e-05 0.0115763)
(-0.00027056 8.95608e-05 0.0116592)
(-0.000467373 9.14216e-05 0.0118298)
(-0.000685928 9.31859e-05 0.0120919)
(-0.00092308 9.29938e-05 0.0124205)
(0.00092308 -9.29938e-05 0.0124205)
(0.000685928 -9.31859e-05 0.0120919)
(0.000467373 -9.14216e-05 0.0118298)
(0.00027056 -8.95609e-05 0.0116592)
(8.85048e-05 -8.85048e-05 0.0115763)
(-8.85048e-05 -8.85048e-05 0.0115763)
(-0.00027056 -8.95609e-05 0.0116592)
(-0.000467373 -9.14216e-05 0.0118298)
(-0.000685928 -9.31859e-05 0.0120919)
(-0.00092308 -9.29938e-05 0.0124205)
(0.000918153 -0.000280698 0.012472)
(0.000687916 -0.000282713 0.0121648)
(0.000471094 -0.000278499 0.0119102)
(0.000273479 -0.000273479 0.0117417)
(8.95608e-05 -0.00027056 0.0116592)
(-8.95609e-05 -0.00027056 0.0116592)
(-0.000273479 -0.000273479 0.0117417)
(-0.000471094 -0.000278499 0.0119102)
(-0.000687916 -0.000282713 0.0121648)
(-0.000918153 -0.000280698 0.012472)
(0.000906752 -0.000468715 0.0125626)
(0.000689819 -0.000479194 0.0123056)
(0.00047696 -0.00047696 0.0120717)
(0.000278499 -0.000471094 0.0119102)
(9.14216e-05 -0.000467373 0.0118298)
(-9.14216e-05 -0.000467373 0.0118298)
(-0.000278499 -0.000471094 0.0119102)
(-0.00047696 -0.00047696 0.0120717)
(-0.000689819 -0.000479194 0.0123056)
(-0.000906752 -0.000468715 0.0125626)
(0.000877443 -0.000656722 0.0126561)
(0.000682701 -0.000682701 0.0124921)
(0.000479194 -0.000689819 0.0123056)
(0.000282713 -0.000687916 0.0121648)
(9.31859e-05 -0.000685928 0.0120919)
(-9.31859e-05 -0.000685928 0.0120919)
(-0.000282713 -0.000687916 0.0121648)
(-0.000479194 -0.000689819 0.0123056)
(-0.000682701 -0.000682701 0.0124921)
(-0.000877443 -0.000656722 0.0126561)
(0.000827414 -0.000827414 0.0126853)
(0.000656722 -0.000877444 0.0126561)
(0.000468715 -0.000906752 0.0125626)
(0.000280698 -0.000918153 0.012472)
(9.29938e-05 -0.00092308 0.0124205)
(-9.29938e-05 -0.00092308 0.0124205)
(-0.000280698 -0.000918153 0.012472)
(-0.000468715 -0.000906752 0.0125626)
(-0.000656722 -0.000877444 0.0126561)
(-0.000827414 -0.000827414 0.0126853)
(0.000648524 0.000648524 0.0125235)
(0.000544111 0.000734982 0.0128258)
(0.000410858 0.000793232 0.0129393)
(0.000254315 0.000826926 0.0129622)
(8.57042e-05 0.000842656 0.0129595)
(-8.57042e-05 0.000842656 0.0129595)
(-0.000254315 0.000826926 0.0129622)
(-0.000410858 0.000793231 0.0129393)
(-0.000544111 0.000734982 0.0128258)
(-0.000648524 0.000648524 0.0125235)
(0.000734982 0.000544111 0.0128258)
(0.000613038 0.000613038 0.0129601)
(0.000453799 0.000652739 0.0129251)
(0.000277209 0.000672418 0.0128518)
(9.29602e-05 0.000680644 0.0128031)
(-9.29602e-05 0.000680644 0.0128031)
(-0.000277209 0.000672418 0.0128518)
(-0.000453799 0.000652739 0.0129251)
(-0.000613038 0.000613038 0.0129601)
(-0.000734982 0.000544111 0.0128258)
(0.000793232 0.000410858 0.0129393)
(0.000652739 0.000453799 0.0129251)
(0.00047663 0.00047663 0.0127869)
(0.000288317 0.000486673 0.0126549)
(9.6298e-05 0.000490402 0.0125807)
(-9.6298e-05 0.000490402 0.0125807)
(-0.000288317 0.000486673 0.0126549)
(-0.00047663 0.00047663 0.0127869)
(-0.000652739 0.000453799 0.0129251)
(-0.000793232 0.000410858 0.0129393)
(0.000826926 0.000254315 0.0129622)
(0.000672418 0.000277209 0.0128518)
(0.000486673 0.000288317 0.0126549)
(0.000292747 0.000292747 0.0124934)
(9.75533e-05 0.000294215 0.0124077)
(-9.75533e-05 0.000294215 0.0124077)
(-0.000292747 0.000292747 0.0124934)
(-0.000486673 0.000288317 0.0126549)
(-0.000672418 0.000277209 0.0128518)
(-0.000826926 0.000254315 0.0129622)
(0.000842656 8.57042e-05 0.0129595)
(0.000680644 9.29602e-05 0.0128031)
(0.000490402 9.6298e-05 0.0125807)
(0.000294215 9.75533e-05 0.0124077)
(9.79384e-05 9.79384e-05 0.0123178)
(-9.79384e-05 9.79384e-05 0.0123178)
(-0.000294215 9.75533e-05 0.0124077)
(-0.000490402 9.6298e-05 0.0125807)
(-0.000680644 9.29602e-05 0.0128031)
(-0.000842656 8.57042e-05 0.0129595)
(0.000842656 -8.57043e-05 0.0129595)
(0.000680644 -9.29602e-05 0.0128031)
(0.000490402 -9.6298e-05 0.0125807)
(0.000294215 -9.75533e-05 0.0124077)
(9.79384e-05 -9.79385e-05 0.0123178)
(-9.79384e-05 -9.79385e-05 0.0123178)
(-0.000294215 -9.75533e-05 0.0124077)
(-0.000490402 -9.6298e-05 0.0125807)
(-0.000680644 -9.29602e-05 0.0128031)
(-0.000842656 -8.57042e-05 0.0129595)
(0.000826926 -0.000254315 0.0129622)
(0.000672418 -0.000277209 0.0128518)
(0.000486673 -0.000288317 0.0126549)
(0.000292747 -0.000292747 0.0124934)
(9.75533e-05 -0.000294215 0.0124077)
(-9.75533e-05 -0.000294215 0.0124077)
(-0.000292747 -0.000292747 0.0124934)
(-0.000486673 -0.000288317 0.0126549)
(-0.000672418 -0.000277209 0.0128518)
(-0.000826926 -0.000254315 0.0129622)
(0.000793231 -0.000410858 0.0129393)
(0.000652739 -0.000453799 0.0129251)
(0.00047663 -0.00047663 0.0127869)
(0.000288317 -0.000486673 0.0126549)
(9.6298e-05 -0.000490402 0.0125807)
(-9.6298e-05 -0.000490402 0.0125807)
(-0.000288317 -0.000486673 0.0126549)
(-0.00047663 -0.00047663 0.0127869)
(-0.000652739 -0.000453799 0.0129251)
(-0.000793232 -0.000410858 0.0129393)
(0.000734982 -0.000544111 0.0128258)
(0.000613038 -0.000613038 0.0129601)
(0.000453799 -0.000652739 0.0129251)
(0.000277209 -0.000672418 0.0128518)
(9.29602e-05 -0.000680644 0.0128031)
(-9.29602e-05 -0.000680644 0.0128031)
(-0.000277209 -0.000672418 0.0128518)
(-0.000453799 -0.000652739 0.0129251)
(-0.000613038 -0.000613038 0.0129601)
(-0.000734982 -0.000544111 0.0128258)
(0.000648524 -0.000648524 0.0125235)
(0.000544111 -0.000734982 0.0128258)
(0.000410858 -0.000793232 0.0129393)
(0.000254315 -0.000826926 0.0129622)
(8.57042e-05 -0.000842656 0.0129595)
(-8.57042e-05 -0.000842656 0.0129595)
(-0.000254315 -0.000826926 0.0129622)
(-0.000410858 -0.000793232 0.0129393)
(-0.000544111 -0.000734982 0.0128258)
(-0.000648524 -0.000648524 0.0125235)
(0.000340211 0.000340211 0.0127545)
(0.000297009 0.000413683 0.013241)
(0.000234983 0.000467105 0.0134878)
(0.000149213 0.000502123 0.0135926)
(5.09609e-05 0.000519013 0.0136277)
(-5.09609e-05 0.000519013 0.0136277)
(-0.000149213 0.000502123 0.0135926)
(-0.000234983 0.000467105 0.0134878)
(-0.000297009 0.000413683 0.013241)
(-0.000340211 0.000340211 0.0127545)
(0.000413683 0.000297009 0.013241)
(0.000363497 0.000363497 0.013581)
(0.000281164 0.00040895 0.013671)
(0.000176631 0.000436397 0.0136644)
(6.00631e-05 0.000449262 0.0136437)
(-6.00631e-05 0.000449262 0.0136437)
(-0.000176631 0.000436397 0.0136644)
(-0.000281164 0.00040895 0.013671)
(-0.000363497 0.000363497 0.013581)
(-0.000413683 0.000297009 0.013241)
(0.000467105 0.000234983 0.0134878)
(0.00040895 0.000281164 0.013671)
(0.000312803 0.000312803 0.0136356)
(0.00019503 0.000331534 0.0135504)
(6.61218e-05 0.000340198 0.0134935)
(-6.61218e-05 0.000340198 0.0134935)
(-0.00019503 0.000331534 0.0135504)
(-0.000312803 0.000312803 0.0136356)
(-0.00040895 0.000281164 0.013671)
(-0.000467105 0.000234983 0.0134878)
(0.000502123 0.000149213 0.0135926)
(0.000436397 0.000176631 0.0136644)
(0.000331534 0.00019503 0.0135504)
(0.000205868 0.000205868 0.0134212)
(6.9686e-05 0.00021086 0.0133458)
(-6.9686e-05 0.00021086 0.0133458)
(-0.000205868 0.000205868 0.0134212)
(-0.000331534 0.00019503 0.0135504)
(-0.000436397 0.000176631 0.0136644)
(-0.000502123 0.000149213 0.0135926)
(0.000519013 5.09609e-05 0.0136277)
(0.000449262 6.00631e-05 0.0136437)
(0.000340198 6.61218e-05 0.0134935)
(0.00021086 6.9686e-05 0.0133458)
(7.13242e-05 7.13242e-05 0.0132631)
(-7.13242e-05 7.13242e-05 0.0132631)
(-0.00021086 6.9686e-05 0.0133458)
(-0.000340198 6.61218e-05 0.0134935)
(-0.000449262 6.00631e-05 0.0136437)
(-0.000519013 5.09609e-05 0.0136277)
(0.000519013 -5.09609e-05 0.0136277)
(0.000449262 -6.00631e-05 0.0136437)
(0.000340198 -6.61218e-05 0.0134935)
(0.00021086 -6.9686e-05 0.0133458)
(7.13242e-05 -7.13242e-05 0.0132631)
(-7.13242e-05 -7.13242e-05 0.0132631)
(-0.00021086 -6.9686e-05 0.0133458)
(-0.000340198 -6.61218e-05 0.0134935)
(-0.000449262 -6.00631e-05 0.0136437)
(-0.000519013 -5.09609e-05 0.0136277)
(0.000502123 -0.000149213 0.0135926)
(0.000436397 -0.000176631 0.0136644)
(0.000331534 -0.00019503 0.0135504)
(0.000205868 -0.000205868 0.0134212)
(6.9686e-05 -0.00021086 0.0133458)
(-6.9686e-05 -0.00021086 0.0133458)
(-0.000205868 -0.000205868 0.0134212)
(-0.000331534 -0.00019503 0.0135504)
(-0.000436397 -0.000176631 0.0136644)
(-0.000502123 -0.000149213 0.0135926)
(0.000467105 -0.000234983 0.0134878)
(0.00040895 -0.000281164 0.013671)
(0.000312803 -0.000312803 0.0136356)
(0.00019503 -0.000331534 0.0135504)
(6.61218e-05 -0.000340198 0.0134935)
(-6.61218e-05 -0.000340198 0.0134935)
(-0.00019503 -0.000331534 0.0135504)
(-0.000312803 -0.000312803 0.0136356)
(-0.00040895 -0.000281164 0.013671)
(-0.000467105 -0.000234983 0.0134878)
(0.000413683 -0.000297009 0.013241)
(0.000363497 -0.000363497 0.013581)
(0.000281164 -0.00040895 0.013671)
(0.000176631 -0.000436397 0.0136644)
(6.00631e-05 -0.000449262 0.0136437)
(-6.00631e-05 -0.000449262 0.0136437)
(-0.000176631 -0.000436397 0.0136644)
(-0.000281164 -0.00040895 0.013671)
(-0.000363497 -0.000363497 0.013581)
(-0.000413683 -0.000297009 0.013241)
(0.000340211 -0.000340211 0.0127545)
(0.000297009 -0.000413683 0.013241)
(0.000234983 -0.000467105 0.0134878)
(0.000149213 -0.000502123 0.0135926)
(5.09609e-05 -0.000519013 0.0136277)
(-5.09609e-05 -0.000519013 0.0136277)
(-0.000149213 -0.000502123 0.0135926)
(-0.000234983 -0.000467105 0.0134878)
(-0.000297009 -0.000413683 0.013241)
(-0.000340211 -0.000340211 0.0127545)
(0.000180981 0.000180981 0.0126557)
(0.000161452 0.000225322 0.0132619)
(0.000131857 0.000260611 0.0136054)
(8.52544e-05 0.000285168 0.0137757)
(2.93972e-05 0.000297335 0.0138432)
(-2.93972e-05 0.000297335 0.0138432)
(-8.52544e-05 0.000285168 0.0137757)
(-0.000131857 0.000260611 0.0136054)
(-0.000161452 0.000225322 0.0132619)
(-0.000180981 0.000180981 0.0126557)
(0.000225322 0.000161452 0.0132619)
(0.000206273 0.000206273 0.0137563)
(0.000165262 0.000239843 0.0139567)
(0.000106148 0.00026184 0.0140193)
(3.64961e-05 0.000272619 0.0140316)
(-3.64961e-05 0.000272619 0.0140316)
(-0.000106148 0.00026184 0.0140193)
(-0.000165262 0.000239843 0.0139567)
(-0.000206273 0.000206273 0.0137563)
(-0.000225322 0.000161452 0.0132619)
(0.000260611 0.000131857 0.0136054)
(0.000239843 0.000165262 0.0139567)
(0.000190712 0.000190712 0.0140332)
(0.000121898 0.000207206 0.0140145)
(4.18317e-05 0.000215242 0.0139885)
(-4.18317e-05 0.000215242 0.0139885)
(-0.000121898 0.000207206 0.0140145)
(-0.000190712 0.000190712 0.0140332)
(-0.000239843 0.000165262 0.0139567)
(-0.000260611 0.000131857 0.0136054)
(0.000285168 8.52544e-05 0.0137757)
(0.00026184 0.000106148 0.0140193)
(0.000207206 0.000121898 0.0140145)
(0.000132052 0.000132052 0.0139484)
(4.52645e-05 0.000136979 0.0139018)
(-4.52645e-05 0.000136979 0.0139018)
(-0.000132052 0.000132052 0.0139484)
(-0.000207206 0.000121898 0.0140145)
(-0.00026184 0.000106148 0.0140193)
(-0.000285168 8.52544e-05 0.0137757)
(0.000297335 2.93972e-05 0.0138432)
(0.000272619 3.64961e-05 0.0140316)
(0.000215242 4.18317e-05 0.0139885)
(0.000136979 4.52645e-05 0.0139018)
(4.69261e-05 4.69261e-05 0.0138469)
(-4.69261e-05 4.69261e-05 0.0138469)
(-0.000136979 4.52645e-05 0.0139018)
(-0.000215242 4.18317e-05 0.0139885)
(-0.000272619 3.64961e-05 0.0140316)
(-0.000297335 2.93972e-05 0.0138432)
(0.000297335 -2.93972e-05 0.0138432)
(0.000272619 -3.64961e-05 0.0140316)
(0.000215242 -4.18317e-05 0.0139885)
(0.000136979 -4.52645e-05 0.0139018)
(4.69261e-05 -4.69261e-05 0.0138469)
(-4.69261e-05 -4.69261e-05 0.0138469)
(-0.000136979 -4.52645e-05 0.0139018)
(-0.000215242 -4.18317e-05 0.0139885)
(-0.000272619 -3.64961e-05 0.0140316)
(-0.000297335 -2.93972e-05 0.0138432)
(0.000285168 -8.52544e-05 0.0137757)
(0.00026184 -0.000106148 0.0140193)
(0.000207206 -0.000121898 0.0140145)
(0.000132052 -0.000132052 0.0139484)
(4.52645e-05 -0.000136979 0.0139018)
(-4.52645e-05 -0.000136979 0.0139018)
(-0.000132052 -0.000132052 0.0139484)
(-0.000207206 -0.000121898 0.0140145)
(-0.00026184 -0.000106148 0.0140193)
(-0.000285168 -8.52544e-05 0.0137757)
(0.000260611 -0.000131857 0.0136054)
(0.000239843 -0.000165262 0.0139567)
(0.000190712 -0.000190712 0.0140332)
(0.000121898 -0.000207206 0.0140145)
(4.18317e-05 -0.000215242 0.0139885)
(-4.18317e-05 -0.000215242 0.0139885)
(-0.000121898 -0.000207206 0.0140145)
(-0.000190712 -0.000190712 0.0140332)
(-0.000239843 -0.000165262 0.0139567)
(-0.000260611 -0.000131857 0.0136054)
(0.000225322 -0.000161452 0.0132619)
(0.000206273 -0.000206273 0.0137563)
(0.000165262 -0.000239843 0.0139567)
(0.000106148 -0.00026184 0.0140193)
(3.64961e-05 -0.000272619 0.0140316)
(-3.64961e-05 -0.000272619 0.0140316)
(-0.000106148 -0.00026184 0.0140193)
(-0.000165262 -0.000239843 0.0139567)
(-0.000206273 -0.000206273 0.0137563)
(-0.000225322 -0.000161452 0.0132619)
(0.000180981 -0.000180981 0.0126557)
(0.000161452 -0.000225322 0.0132619)
(0.000131857 -0.000260611 0.0136054)
(8.52544e-05 -0.000285168 0.0137757)
(2.93972e-05 -0.000297335 0.0138432)
(-2.93972e-05 -0.000297335 0.0138432)
(-8.52544e-05 -0.000285168 0.0137757)
(-0.000131857 -0.000260611 0.0136054)
(-0.000161452 -0.000225322 0.0132619)
(-0.000180981 -0.000180981 0.0126557)
(7.78535e-05 7.78535e-05 0.0125811)
(7.2504e-05 0.000102075 0.0132323)
(6.20657e-05 0.000122799 0.0136189)
(4.11977e-05 0.000138062 0.0138216)
(1.44028e-05 0.000145843 0.0139063)
(-1.44028e-05 0.000145843 0.0139063)
(-4.11977e-05 0.000138062 0.0138216)
(-6.20657e-05 0.000122799 0.0136189)
(-7.2504e-05 0.000102075 0.0132323)
(-7.78535e-05 7.78535e-05 0.0125811)
(0.000102075 7.2504e-05 0.0132323)
(9.92698e-05 9.92698e-05 0.0138001)
(8.35142e-05 0.000121144 0.014062)
(5.52805e-05 0.000136521 0.0141678)
(1.92904e-05 0.000144349 0.0142021)
(-1.92904e-05 0.000144349 0.0142021)
(-5.52805e-05 0.000136521 0.0141678)
(-8.35143e-05 0.000121144 0.014062)
(-9.92698e-05 9.92698e-05 0.0138001)
(-0.000102075 7.2504e-05 0.0132323)
(0.000122799 6.20657e-05 0.0136189)
(0.000121144 8.35142e-05 0.014062)
(0.000101431 0.000101431 0.0142112)
(6.69351e-05 0.00011388 0.0142416)
(2.33251e-05 0.000120183 0.01424)
(-2.33251e-05 0.000120183 0.01424)
(-6.69351e-05 0.00011388 0.0142416)
(-0.000101431 0.000101431 0.0142112)
(-0.000121144 8.35143e-05 0.014062)
(-0.000122799 6.20657e-05 0.0136189)
(0.000138062 4.11977e-05 0.0138216)
(0.000136521 5.52805e-05 0.0141678)
(0.00011388 6.69351e-05 0.0142416)
(7.49631e-05 7.49631e-05 0.0142272)
(2.60934e-05 7.90035e-05 0.014206)
(-2.60934e-05 7.90035e-05 0.014206)
(-7.49631e-05 7.49631e-05 0.0142272)
(-0.00011388 6.69351e-05 0.0142416)
(-0.000136521 5.52805e-05 0.0141678)
(-0.000138062 4.11977e-05 0.0138216)
(0.000145843 1.44028e-05 0.0139063)
(0.000144349 1.92904e-05 0.0142021)
(0.000120183 2.33251e-05 0.01424)
(7.90035e-05 2.60934e-05 0.014206)
(2.74819e-05 2.74819e-05 0.0141769)
(-2.74819e-05 2.74819e-05 0.0141769)
(-7.90035e-05 2.60934e-05 0.014206)
(-0.000120183 2.33251e-05 0.01424)
(-0.000144349 1.92904e-05 0.0142021)
(-0.000145843 1.44028e-05 0.0139063)
(0.000145843 -1.44028e-05 0.0139063)
(0.000144349 -1.92904e-05 0.0142021)
(0.000120183 -2.33251e-05 0.01424)
(7.90035e-05 -2.60934e-05 0.014206)
(2.74819e-05 -2.74819e-05 0.0141769)
(-2.74819e-05 -2.74819e-05 0.0141769)
(-7.90035e-05 -2.60934e-05 0.014206)
(-0.000120183 -2.33251e-05 0.01424)
(-0.000144349 -1.92904e-05 0.0142021)
(-0.000145843 -1.44028e-05 0.0139063)
(0.000138062 -4.11977e-05 0.0138216)
(0.000136521 -5.52805e-05 0.0141678)
(0.00011388 -6.69351e-05 0.0142416)
(7.49631e-05 -7.49631e-05 0.0142272)
(2.60934e-05 -7.90035e-05 0.014206)
(-2.60934e-05 -7.90035e-05 0.014206)
(-7.49631e-05 -7.49631e-05 0.0142272)
(-0.00011388 -6.69351e-05 0.0142416)
(-0.000136521 -5.52805e-05 0.0141678)
(-0.000138062 -4.11977e-05 0.0138216)
(0.000122799 -6.20657e-05 0.0136189)
(0.000121144 -8.35143e-05 0.014062)
(0.000101431 -0.000101431 0.0142112)
(6.69351e-05 -0.00011388 0.0142416)
(2.33251e-05 -0.000120183 0.01424)
(-2.33251e-05 -0.000120183 0.01424)
(-6.69351e-05 -0.00011388 0.0142416)
(-0.000101431 -0.000101431 0.0142112)
(-0.000121144 -8.35142e-05 0.014062)
(-0.000122799 -6.20657e-05 0.0136189)
(0.000102075 -7.2504e-05 0.0132323)
(9.92698e-05 -9.92698e-05 0.0138001)
(8.35143e-05 -0.000121144 0.014062)
(5.52805e-05 -0.000136521 0.0141678)
(1.92904e-05 -0.000144349 0.0142021)
(-1.92904e-05 -0.000144349 0.0142021)
(-5.52805e-05 -0.000136521 0.0141678)
(-8.35142e-05 -0.000121144 0.014062)
(-9.92698e-05 -9.92698e-05 0.0138001)
(-0.000102075 -7.2504e-05 0.0132323)
(7.78535e-05 -7.78535e-05 0.0125811)
(7.2504e-05 -0.000102075 0.0132323)
(6.20657e-05 -0.000122799 0.0136189)
(4.11977e-05 -0.000138062 0.0138216)
(1.44028e-05 -0.000145843 0.0139063)
(-1.44028e-05 -0.000145843 0.0139063)
(-4.11977e-05 -0.000138062 0.0138216)
(-6.20657e-05 -0.000122799 0.0136189)
(-7.2504e-05 -0.000102075 0.0132323)
(-7.78535e-05 -7.78535e-05 0.0125811)
(2.83989e-05 2.8399e-05 0.0125364)
(2.7775e-05 3.93217e-05 0.0132031)
(2.50299e-05 4.94092e-05 0.0136077)
(1.70781e-05 5.72576e-05 0.0138255)
(6.063e-06 6.13716e-05 0.0139186)
(-6.063e-06 6.13716e-05 0.0139186)
(-1.70781e-05 5.72576e-05 0.0138255)
(-2.50299e-05 4.94092e-05 0.0136077)
(-2.7775e-05 3.93217e-05 0.0132031)
(-2.8399e-05 2.83989e-05 0.0125364)
(3.93217e-05 2.7775e-05 0.0132031)
(4.10386e-05 4.10386e-05 0.013803)
(3.64589e-05 5.28263e-05 0.0140963)
(2.49209e-05 6.1642e-05 0.0142266)
(8.83652e-06 6.62775e-05 0.0142742)
(-8.83652e-06 6.62775e-05 0.0142742)
(-2.49209e-05 6.1642e-05 0.0142266)
(-3.64589e-05 5.28263e-05 0.0140963)
(-4.10386e-05 4.10386e-05 0.013803)
(-3.93217e-05 2.7775e-05 0.0132031)
(4.94092e-05 2.50299e-05 0.0136077)
(5.28263e-05 3.64589e-05 0.0140963)
(4.68156e-05 4.68156e-05 0.0142879)
(3.19502e-05 5.44436e-05 0.0143497)
(1.13136e-05 5.84248e-05 0.0143645)
(-1.13136e-05 5.84248e-05 0.0143645)
(-3.19502e-05 5.44436e-05 0.0143497)
(-4.68156e-05 4.68156e-05 0.0142879)
(-5.28263e-05 3.64589e-05 0.0140963)
(-4.94092e-05 2.50299e-05 0.0136077)
(5.72576e-05 1.70781e-05 0.0138255)
(6.1642e-05 2.49209e-05 0.0142266)
(5.44436e-05 3.19502e-05 0.0143497)
(3.70642e-05 3.70642e-05 0.0143707)
(1.31057e-05 3.97123e-05 0.0143677)
(-1.31057e-05 3.97123e-05 0.0143677)
(-3.70642e-05 3.70642e-05 0.0143707)
(-5.44436e-05 3.19502e-05 0.0143497)
(-6.1642e-05 2.49209e-05 0.0142266)
(-5.72576e-05 1.70781e-05 0.0138255)
(6.13716e-05 6.063e-06 0.0139186)
(6.62775e-05 8.83652e-06 0.0142742)
(5.84248e-05 1.13136e-05 0.0143645)
(3.97123e-05 1.31057e-05 0.0143677)
(1.40299e-05 1.40299e-05 0.0143575)
(-1.40299e-05 1.40299e-05 0.0143575)
(-3.97123e-05 1.31057e-05 0.0143677)
(-5.84248e-05 1.13136e-05 0.0143645)
(-6.62775e-05 8.83652e-06 0.0142742)
(-6.13716e-05 6.063e-06 0.0139186)
(6.13716e-05 -6.063e-06 0.0139186)
(6.62775e-05 -8.83652e-06 0.0142742)
(5.84248e-05 -1.13136e-05 0.0143645)
(3.97123e-05 -1.31057e-05 0.0143677)
(1.40299e-05 -1.40299e-05 0.0143575)
(-1.40299e-05 -1.40299e-05 0.0143575)
(-3.97123e-05 -1.31057e-05 0.0143677)
(-5.84248e-05 -1.13136e-05 0.0143645)
(-6.62775e-05 -8.83652e-06 0.0142742)
(-6.13716e-05 -6.063e-06 0.0139186)
(5.72576e-05 -1.70781e-05 0.0138255)
(6.1642e-05 -2.49209e-05 0.0142266)
(5.44436e-05 -3.19502e-05 0.0143497)
(3.70642e-05 -3.70642e-05 0.0143707)
(1.31057e-05 -3.97123e-05 0.0143677)
(-1.31057e-05 -3.97123e-05 0.0143677)
(-3.70642e-05 -3.70642e-05 0.0143707)
(-5.44436e-05 -3.19502e-05 0.0143497)
(-6.1642e-05 -2.49209e-05 0.0142266)
(-5.72576e-05 -1.70781e-05 0.0138255)
(4.94092e-05 -2.50299e-05 0.0136077)
(5.28263e-05 -3.64589e-05 0.0140963)
(4.68156e-05 -4.68156e-05 0.0142879)
(3.19502e-05 -5.44436e-05 0.0143497)
(1.13136e-05 -5.84248e-05 0.0143645)
(-1.13136e-05 -5.84248e-05 0.0143645)
(-3.19502e-05 -5.44436e-05 0.0143497)
(-4.68156e-05 -4.68156e-05 0.0142879)
(-5.28263e-05 -3.64589e-05 0.0140963)
(-4.94092e-05 -2.50299e-05 0.0136077)
(3.93217e-05 -2.7775e-05 0.0132031)
(4.10386e-05 -4.10386e-05 0.013803)
(3.64589e-05 -5.28263e-05 0.0140963)
(2.49209e-05 -6.1642e-05 0.0142266)
(8.83652e-06 -6.62775e-05 0.0142742)
(-8.83652e-06 -6.62775e-05 0.0142742)
(-2.49209e-05 -6.1642e-05 0.0142266)
(-3.64589e-05 -5.28263e-05 0.0140963)
(-4.10385e-05 -4.10386e-05 0.013803)
(-3.93217e-05 -2.7775e-05 0.0132031)
(2.8399e-05 -2.8399e-05 0.0125364)
(2.7775e-05 -3.93217e-05 0.0132031)
(2.50299e-05 -4.94092e-05 0.0136077)
(1.70781e-05 -5.72576e-05 0.0138255)
(6.063e-06 -6.13716e-05 0.0139186)
(-6.063e-06 -6.13716e-05 0.0139186)
(-1.70781e-05 -5.72576e-05 0.0138255)
(-2.50299e-05 -4.94092e-05 0.0136077)
(-2.7775e-05 -3.93217e-05 0.0132031)
(-2.8399e-05 -2.8399e-05 0.0125364)
(8.84287e-06 8.84287e-06 0.0125127)
(9.28824e-06 1.31742e-05 0.0131827)
(8.9385e-06 1.74582e-05 0.0135931)
(6.30747e-06 2.09604e-05 0.0138167)
(2.28175e-06 2.28432e-05 0.0139134)
(-2.28175e-06 2.28432e-05 0.0139134)
(-6.30747e-06 2.09604e-05 0.0138167)
(-8.9385e-06 1.74582e-05 0.0135931)
(-9.28824e-06 1.31742e-05 0.0131827)
(-8.84288e-06 8.84287e-06 0.0125127)
(1.31742e-05 9.28824e-06 0.0131827)
(1.50441e-05 1.50441e-05 0.013794)
(1.423e-05 2.05427e-05 0.014101)
(1.00735e-05 2.48658e-05 0.0142431)
(3.63431e-06 2.71984e-05 0.0142974)
(-3.6343e-06 2.71984e-05 0.0142974)
(-1.00735e-05 2.48658e-05 0.0142431)
(-1.423e-05 2.05427e-05 0.014101)
(-1.50441e-05 1.50441e-05 0.013794)
(-1.31742e-05 9.28823e-06 0.0131827)
(1.74582e-05 8.9385e-06 0.0135931)
(2.05427e-05 1.423e-05 0.014101)
(1.93538e-05 1.93538e-05 0.0143135)
(1.36704e-05 2.33049e-05 0.0143922)
(4.9197e-06 2.54158e-05 0.0144163)
(-4.91969e-06 2.54158e-05 0.0144163)
(-1.36704e-05 2.33049e-05 0.0143922)
(-1.93538e-05 1.93538e-05 0.0143135)
(-2.05427e-05 1.423e-05 0.014101)
(-1.74582e-05 8.9385e-06 0.0135931)
(2.09604e-05 6.30747e-06 0.0138167)
(2.48658e-05 1.00735e-05 0.0142431)
(2.33049e-05 1.36704e-05 0.0143922)
(1.64027e-05 1.64027e-05 0.0144335)
(5.88947e-06 1.78488e-05 0.0144414)
(-5.88946e-06 1.78488e-05 0.0144414)
(-1.64027e-05 1.64027e-05 0.0144335)
(-2.33049e-05 1.36704e-05 0.0143922)
(-2.48658e-05 1.00735e-05 0.0142431)
(-2.09604e-05 6.30747e-06 0.0138167)
(2.28432e-05 2.28175e-06 0.0139134)
(2.71984e-05 3.63431e-06 0.0142974)
(2.54158e-05 4.9197e-06 0.0144163)
(1.78488e-05 5.88947e-06 0.0144414)
(6.4003e-06 6.4003e-06 0.0144427)
(-6.40029e-06 6.4003e-06 0.0144427)
(-1.78488e-05 5.88947e-06 0.0144414)
(-2.54158e-05 4.9197e-06 0.0144163)
(-2.71984e-05 3.63431e-06 0.0142974)
(-2.28432e-05 2.28175e-06 0.0139134)
(2.28432e-05 -2.28175e-06 0.0139134)
(2.71984e-05 -3.63431e-06 0.0142974)
(2.54158e-05 -4.91969e-06 0.0144163)
(1.78488e-05 -5.88946e-06 0.0144414)
(6.4003e-06 -6.4003e-06 0.0144427)
(-6.40029e-06 -6.40029e-06 0.0144427)
(-1.78488e-05 -5.88946e-06 0.0144414)
(-2.54158e-05 -4.91969e-06 0.0144163)
(-2.71984e-05 -3.63431e-06 0.0142974)
(-2.28432e-05 -2.28175e-06 0.0139134)
(2.09604e-05 -6.30747e-06 0.0138167)
(2.48658e-05 -1.00735e-05 0.0142431)
(2.33049e-05 -1.36704e-05 0.0143922)
(1.64027e-05 -1.64027e-05 0.0144335)
(5.88947e-06 -1.78488e-05 0.0144414)
(-5.88946e-06 -1.78488e-05 0.0144414)
(-1.64027e-05 -1.64027e-05 0.0144335)
(-2.33049e-05 -1.36704e-05 0.0143922)
(-2.48658e-05 -1.00735e-05 0.0142431)
(-2.09604e-05 -6.30747e-06 0.0138167)
(1.74582e-05 -8.93851e-06 0.0135931)
(2.05427e-05 -1.423e-05 0.014101)
(1.93538e-05 -1.93538e-05 0.0143135)
(1.36704e-05 -2.33049e-05 0.0143922)
(4.9197e-06 -2.54158e-05 0.0144163)
(-4.91969e-06 -2.54158e-05 0.0144163)
(-1.36704e-05 -2.33049e-05 0.0143922)
(-1.93538e-05 -1.93538e-05 0.0143135)
(-2.05427e-05 -1.423e-05 0.014101)
(-1.74582e-05 -8.9385e-06 0.0135931)
(1.31742e-05 -9.28824e-06 0.0131827)
(1.50441e-05 -1.50441e-05 0.013794)
(1.423e-05 -2.05427e-05 0.014101)
(1.00735e-05 -2.48658e-05 0.0142431)
(3.63431e-06 -2.71984e-05 0.0142974)
(-3.63431e-06 -2.71984e-05 0.0142974)
(-1.00735e-05 -2.48658e-05 0.0142431)
(-1.423e-05 -2.05427e-05 0.014101)
(-1.50441e-05 -1.50441e-05 0.013794)
(-1.31742e-05 -9.28824e-06 0.0131827)
(8.84287e-06 -8.84288e-06 0.0125127)
(9.28823e-06 -1.31742e-05 0.0131827)
(8.9385e-06 -1.74582e-05 0.0135931)
(6.30747e-06 -2.09604e-05 0.0138167)