/*--------------------------------*- C++ -*----------------------------------*\
| =========                 |                                                 |
| \\      /  F ield         | OpenFOAM: The Open Source CFD Toolbox           |
|  \\    /   O peration     | Version:  2412                                  |
|   \\  /    A nd           | Website:  www.openfoam.com                      |
|    \\/     M anipulation  |                                                 |
\*---------------------------------------------------------------------------*/
FoamFile
{
    version     2.0;
    format      ascii;
    arch        "LSB;label=32;scalar=64";
    class       volScalarField;
    location    "0.1";
    object      nut;
}
// * * * * * * * * * * * * * * * * * * * * * * * * * * * * * * * * * * * * * //

dimensions      [0 2 -1 0 0 0 0];

internalField   uniform 0;

boundaryField
{
    walls
    {
        type            nutUSpaldingWallFunction;
        value           nonuniform List<scalar> 
2000
(
0.00363856
0.0036548
0.00366767
0.0036766
0.00368117
0.00368117
0.0036766
0.00366767
0.0036548
0.00363856
0.00361986
0.00363628
0.00364922
0.0036582
0.0036628
0.0036628
0.0036582
0.00364922
0.00363628
0.00361986
0.00359515
0.00361176
0.00362481
0.00363388
0.00363851
0.00363851
0.00363388
0.00362481
0.00361176
0.00359515
0.00356031
0.00357713
0.0035903
0.00359946
0.00360414
0.00360414
0.00359946
0.0035903
0.00357713
0.00356031
0.00352079
0.00353781
0.00355111
0.00356036
0.00356509
0.00356509
0.00356036
0.00355111
0.00353781
0.00352079
0.0034802
0.00349743
0.00351086
0.0035202
0.00352497
0.00352497
0.0035202
0.00351086
0.00349743
0.0034802
0.003439
0.00345644
0.00347
0.00347943
0.00348424
0.00348424
0.00347943
0.00347
0.00345645
0.00343901
0.00339711
0.00341475
0.00342843
0.00343795
0.0034428
0.0034428
0.00343795
0.00342843
0.00341476
0.00339711
0.0033549
0.00337274
0.00338654
0.00339614
0.00340104
0.00340104
0.00339615
0.00338654
0.00337275
0.0033549
0.00331285
0.00333089
0.0033448
0.00335449
0.00335942
0.00335942
0.00335449
0.0033448
0.00333089
0.00331285
0.00327123
0.00328946
0.00330347
0.00331324
0.00331822
0.00331822
0.00331324
0.00330347
0.00328946
0.00327123
0.00323017
0.00324857
0.0032627
0.00327254
0.00327755
0.00327755
0.00327254
0.00326269
0.00324857
0.00323017
0.00318974
0.00320832
0.00322254
0.00323247
0.00323751
0.00323751
0.00323247
0.00322254
0.00320832
0.00318974
0.00315004
0.00316878
0.0031831
0.00319309
0.00319817
0.00319817
0.00319309
0.00318309
0.00316878
0.00315003
0.0031111
0.00313
0.00314441
0.00315447
0.00315958
0.00315958
0.00315447
0.0031444
0.00312999
0.0031111
0.00307296
0.003092
0.0031065
0.00311663
0.00312177
0.00312177
0.00311663
0.0031065
0.003092
0.00307296
0.00303563
0.00305481
0.00306939
0.00307959
0.00308476
0.00308476
0.00307959
0.0030694
0.00305481
0.00303563
0.00299912
0.00301843
0.0030331
0.00304336
0.00304855
0.00304856
0.00304336
0.0030331
0.00301844
0.00299913
0.00296344
0.00298287
0.00299761
0.00300793
0.00301315
0.00301316
0.00300794
0.00299762
0.00298288
0.00296345
0.00292858
0.00294812
0.00296294
0.00297331
0.00297856
0.00297856
0.00297332
0.00296295
0.00294814
0.00292859
0.00289454
0.00291419
0.00292907
0.0029395
0.00294477
0.00294477
0.0029395
0.00292908
0.0029142
0.00289456
0.00286132
0.00288106
0.00289601
0.00290648
0.00291178
0.00291178
0.00290649
0.00289602
0.00288107
0.00286133
0.0028289
0.00284873
0.00286374
0.00287426
0.00287957
0.00287958
0.00287426
0.00286375
0.00284874
0.00282891
0.00279728
0.00281719
0.00283226
0.00284282
0.00284816
0.00284816
0.00284283
0.00283227
0.0028172
0.00279729
0.00276645
0.00278644
0.00280156
0.00281216
0.00281752
0.00281752
0.00281217
0.00280157
0.00278645
0.00276646
0.0027364
0.00275646
0.00277164
0.00278228
0.00278765
0.00278765
0.00278228
0.00277164
0.00275647
0.00273641
0.00270712
0.00272723
0.00274246
0.00275313
0.00275852
0.00275852
0.00275314
0.00274247
0.00272724
0.00270713
0.00267856
0.00269872
0.002714
0.00272471
0.00273012
0.00273012
0.00272471
0.00271401
0.00269874
0.00267857
0.00265068
0.00267089
0.00268622
0.00269696
0.00270238
0.00270238
0.00269696
0.00268623
0.00267091
0.00265069
0.00262343
0.00264369
0.00265905
0.00266982
0.00267525
0.00267526
0.00266982
0.00265906
0.0026437
0.00262344
0.00259675
0.00261705
0.00263245
0.00264325
0.0026487
0.0026487
0.00264325
0.00263246
0.00261706
0.00259677
0.0025706
0.00259094
0.00260638
0.0026172
0.00262266
0.00262266
0.0026172
0.00260639
0.00259095
0.00257062
0.00254496
0.00256532
0.0025808
0.00259164
0.00259712
0.00259712
0.00259165
0.0025808
0.00256533
0.00254498
0.0025198
0.00254019
0.0025557
0.00256656
0.00257205
0.00257205
0.00256656
0.0025557
0.00254019
0.00251981
0.00249512
0.00251552
0.00253106
0.00254194
0.00254744
0.00254744
0.00254194
0.00253105
0.00251551
0.00249511
0.00247091
0.00249132
0.00250688
0.00251778
0.00252328
0.00252327
0.00251776
0.00250685
0.00249129
0.00247088
0.00244715
0.00246756
0.00248314
0.00249405
0.00249956
0.00249955
0.00249404
0.00248311
0.00246753
0.00244711
0.00242385
0.00244426
0.00245985
0.00247077
0.00247629
0.00247628
0.00247076
0.00245983
0.00244423
0.00242381
0.00240102
0.00242141
0.00243702
0.00244795
0.00245347
0.00245347
0.00244794
0.00243701
0.0024214
0.002401
0.00237865
0.00239903
0.00241465
0.00242559
0.00243111
0.00243112
0.00242559
0.00241465
0.00239904
0.00237865
0.00235675
0.00237712
0.00239274
0.00240368
0.00240922
0.00240922
0.0024037
0.00239276
0.00237714
0.00235677
0.00233531
0.00235566
0.00237128
0.00238223
0.00238776
0.00238777
0.00238224
0.0023713
0.00235568
0.00233533
0.00231429
0.00233462
0.00235025
0.00236119
0.00236672
0.00236672
0.00236119
0.00235025
0.00233462
0.0023143
0.00229364
0.00231394
0.00232957
0.00234051
0.00234604
0.00234604
0.0023405
0.00232956
0.00231393
0.00229363
0.00227335
0.00229362
0.00230925
0.00232018
0.00232571
0.00232571
0.00232017
0.00230922
0.00229359
0.00227331
0.00225324
0.00227348
0.0022891
0.00230004
0.00230557
0.00230556
0.00230002
0.00228907
0.00227344
0.00225319
0.0022337
0.00225391
0.00226954
0.00228047
0.002286
0.002286
0.00228045
0.00226952
0.00225388
0.00223368
0.00221318
0.00223334
0.00224896
0.00225989
0.00226543
0.00226542
0.00225989
0.00224896
0.00223334
0.00221318
0.0021971
0.00221723
0.00223284
0.00224377
0.0022493
0.00224931
0.00224378
0.00223286
0.00221726
0.00219714
0.00216787
0.00218792
0.00220351
0.00221442
0.00221995
0.00221997
0.00221445
0.00220357
0.002188
0.00216796
0.00363856
0.0036548
0.00366767
0.0036766
0.00368117
0.00368117
0.0036766
0.00366767
0.0036548
0.00363856
0.00361986
0.00363628
0.00364922
0.0036582
0.0036628
0.0036628
0.0036582
0.00364922
0.00363628
0.00361986
0.00359515
0.00361176
0.00362481
0.00363388
0.00363851
0.00363851
0.00363388
0.00362481
0.00361176
0.00359515
0.00356031
0.00357713
0.0035903
0.00359946
0.00360414
0.00360414
0.00359946
0.0035903
0.00357713
0.00356031
0.00352079
0.00353781
0.00355111
0.00356036
0.00356509
0.00356509
0.00356036
0.00355111
0.00353781
0.00352078
0.0034802
0.00349743
0.00351086
0.0035202
0.00352497
0.00352497
0.0035202
0.00351086
0.00349743
0.0034802
0.00343901
0.00345645
0.00347
0.00347943
0.00348424
0.00348424
0.00347943
0.00347
0.00345645
0.003439
0.00339711
0.00341476
0.00342843
0.00343795
0.0034428
0.0034428
0.00343795
0.00342843
0.00341475
0.00339711
0.0033549
0.00337274
0.00338654
0.00339614
0.00340104
0.00340104
0.00339614
0.00338654
0.00337274
0.0033549
0.00331285
0.00333089
0.0033448
0.00335449
0.00335942
0.00335942
0.00335449
0.0033448
0.00333089
0.00331285
0.00327123
0.00328946
0.00330347
0.00331325
0.00331822
0.00331822
0.00331324
0.00330347
0.00328946
0.00327123
0.00323017
0.00324857
0.0032627
0.00327254
0.00327755
0.00327755
0.00327254
0.0032627
0.00324857
0.00323017
0.00318975
0.00320832
0.00322255
0.00323247
0.00323751
0.00323751
0.00323247
0.00322255
0.00320832
0.00318975
0.00315004
0.00316878
0.0031831
0.0031931
0.00319817
0.00319817
0.0031931
0.0031831
0.00316878
0.00315004
0.0031111
0.00313
0.00314441
0.00315447
0.00315958
0.00315958
0.00315447
0.00314441
0.00313
0.0031111
0.00307296
0.003092
0.0031065
0.00311663
0.00312177
0.00312177
0.00311663
0.0031065
0.003092
0.00307296
0.00303563
0.00305481
0.00306939
0.00307959
0.00308476
0.00308476
0.00307959
0.00306939
0.00305481
0.00303563
0.00299912
0.00301844
0.0030331
0.00304336
0.00304855
0.00304855
0.00304336
0.0030331
0.00301843
0.00299912
0.00296345
0.00298288
0.00299762
0.00300793
0.00301316
0.00301315
0.00300793
0.00299761
0.00298287
0.00296344
0.00292859
0.00294814
0.00296295
0.00297332
0.00297857
0.00297856
0.00297332
0.00296294
0.00294813
0.00292858
0.00289456
0.00291421
0.00292909
0.00293951
0.00294478
0.00294477
0.0029395
0.00292908
0.0029142
0.00289454
0.00286134
0.00288108
0.00289602
0.00290649
0.00291178
0.00291178
0.00290649
0.00289601
0.00288107
0.00286132
0.00282892
0.00284875
0.00286375
0.00287427
0.00287958
0.00287958
0.00287426
0.00286374
0.00284873
0.0028289
0.0027973
0.00281721
0.00283227
0.00284283
0.00284816
0.00284816
0.00284282
0.00283226
0.00281719
0.00279728
0.00276647
0.00278645
0.00280157
0.00281217
0.00281752
0.00281751
0.00281216
0.00280156
0.00278644
0.00276645
0.00273642
0.00275647
0.00277165
0.00278228
0.00278765
0.00278764
0.00278227
0.00277163
0.00275646
0.0027364
0.00270713
0.00272725
0.00274247
0.00275314
0.00275853
0.00275852
0.00275313
0.00274246
0.00272723
0.00270712
0.00267858
0.00269875
0.00271402
0.00272472
0.00273012
0.00273012
0.00272471
0.002714
0.00269873
0.00267856
0.0026507
0.00267092
0.00268623
0.00269697
0.00270239
0.00270239
0.00269696
0.00268622
0.0026709
0.00265068
0.00262344
0.00264371
0.00265906
0.00266983
0.00267526
0.00267526
0.00266983
0.00265906
0.00264369
0.00262343
0.00259676
0.00261705
0.00263245
0.00264325
0.0026487
0.0026487
0.00264325
0.00263245
0.00261705
0.00259675
0.00257059
0.00259092
0.00260635
0.00261718
0.00262264
0.00262264
0.00261719
0.00260637
0.00259093
0.0025706
0.00254491
0.00256527
0.00258075
0.00259159
0.00259707
0.00259708
0.00259161
0.00258077
0.00256531
0.00254495
0.00251973
0.00254011
0.00255562
0.00256649
0.00257198
0.00257199
0.00256651
0.00255566
0.00254017
0.00251979
0.00249503
0.00251543
0.00253097
0.00254186
0.00254736
0.00254737
0.00254189
0.00253101
0.0025155
0.00249511
0.00247082
0.00249124
0.0025068
0.0025177
0.00252322
0.00252322
0.00251773
0.00250683
0.00249129
0.00247089
0.0024471
0.00246751
0.0024831
0.00249402
0.00249953
0.00249954
0.00249403
0.00248311
0.00246754
0.00244714
0.00242385
0.00244426
0.00245986
0.00247079
0.00247631
0.0024763
0.00247078
0.00245985
0.00244426
0.00242385
0.00240106
0.00242146
0.00243707
0.002448
0.00245353
0.00245352
0.00244798
0.00243704
0.00242143
0.00240102
0.00237872
0.00239911
0.00241473
0.00242566
0.00243119
0.00243118
0.00242564
0.00241469
0.00239906
0.00237866
0.00235683
0.00237719
0.00239281
0.00240375
0.00240928
0.00240928
0.00240374
0.00239278
0.00237715
0.00235676
0.00233535
0.0023557
0.00237133
0.00238227
0.0023878
0.0023878
0.00238227
0.00237132
0.00235568
0.00233532
0.00231429
0.00233461
0.00235024
0.00236119
0.00236673
0.00236674
0.00236121
0.00235027
0.00233463
0.0023143
0.0022936
0.0023139
0.00232953
0.00234048
0.00234602
0.00234604
0.00234051
0.00232958
0.00231395
0.00229365
0.00227328
0.00229356
0.00230919
0.00232014
0.00232569
0.0023257
0.00232018
0.00230925
0.00229362
0.00227335
0.00225317
0.00227342
0.00228905
0.0023
0.00230554
0.00230555
0.00230003
0.0022891
0.00227347
0.00225324
0.00223366
0.00225387
0.0022695
0.00228044
0.00228599
0.00228599
0.00228046
0.00226953
0.0022539
0.0022337
0.00221317
0.00223333
0.00224896
0.00225988
0.00226542
0.00226542
0.00225988
0.00224895
0.00223333
0.00221317
0.00219712
0.00221724
0.00223285
0.00224376
0.0022493
0.00224929
0.00224376
0.00223283
0.00221722
0.0021971
0.00216794
0.00218797
0.00220355
0.00221444
0.00221996
0.00221996
0.00221444
0.00220353
0.00218794
0.00216788
0.00363856
0.0036548
0.00366767
0.0036766
0.00368117
0.00368117
0.0036766
0.00366767
0.0036548
0.00363856
0.00361986
0.00363628
0.00364922
0.0036582
0.0036628
0.0036628
0.0036582
0.00364922
0.00363628
0.00361986
0.00359515
0.00361176
0.00362481
0.00363388
0.00363851
0.00363851
0.00363388
0.00362481
0.00361176
0.00359515
0.00356031
0.00357713
0.0035903
0.00359946
0.00360414
0.00360414
0.00359946
0.0035903
0.00357713
0.00356031
0.00352079
0.00353781
0.00355111
0.00356036
0.00356509
0.00356509
0.00356036
0.00355111
0.00353781
0.00352079
0.0034802
0.00349744
0.00351086
0.00352021
0.00352497
0.00352497
0.00352021
0.00351086
0.00349744
0.0034802
0.00343901
0.00345645
0.00347
0.00347943
0.00348424
0.00348424
0.00347943
0.00347
0.00345645
0.00343901
0.00339711
0.00341476
0.00342843
0.00343795
0.00344281
0.00344281
0.00343795
0.00342843
0.00341476
0.00339711
0.0033549
0.00337275
0.00338654
0.00339615
0.00340104
0.00340104
0.00339614
0.00338654
0.00337274
0.0033549
0.00331285
0.00333089
0.0033448
0.00335449
0.00335942
0.00335942
0.00335449
0.0033448
0.00333089
0.00331285
0.00327123
0.00328946
0.00330347
0.00331324
0.00331822
0.00331822
0.00331324
0.00330347
0.00328946
0.00327123
0.00323017
0.00324857
0.00326269
0.00327254
0.00327755
0.00327755
0.00327254
0.0032627
0.00324857
0.00323017
0.00318974
0.00320832
0.00322254
0.00323247
0.00323751
0.00323751
0.00323247
0.00322255
0.00320832
0.00318975
0.00315004
0.00316878
0.0031831
0.0031931
0.00319817
0.00319817
0.0031931
0.0031831
0.00316878
0.00315004
0.0031111
0.00313
0.00314441
0.00315447
0.00315958
0.00315958
0.00315447
0.00314441
0.00313
0.0031111
0.00307296
0.003092
0.0031065
0.00311663
0.00312177
0.00312177
0.00311663
0.0031065
0.003092
0.00307296
0.00303563
0.00305481
0.00306939
0.00307959
0.00308476
0.00308476
0.00307959
0.0030694
0.00305481
0.00303563
0.00299913
0.00301844
0.0030331
0.00304336
0.00304856
0.00304856
0.00304336
0.0030331
0.00301844
0.00299913
0.00296345
0.00298288
0.00299762
0.00300794
0.00301316
0.00301316
0.00300794
0.00299762
0.00298288
0.00296345
0.0029286
0.00294814
0.00296295
0.00297332
0.00297857
0.00297857
0.00297332
0.00296295
0.00294814
0.00292859
0.00289456
0.00291421
0.00292909
0.00293951
0.00294478
0.00294478
0.00293951
0.00292909
0.00291421
0.00289456
0.00286134
0.00288108
0.00289603
0.0029065
0.00291179
0.00291179
0.0029065
0.00289603
0.00288108
0.00286134
0.00282892
0.00284875
0.00286376
0.00287428
0.00287959
0.00287959
0.00287428
0.00286376
0.00284875
0.00282892
0.0027973
0.00281721
0.00283228
0.00284284
0.00284817
0.00284817
0.00284284
0.00283228
0.00281721
0.0027973
0.00276647
0.00278646
0.00280158
0.00281218
0.00281753
0.00281753
0.00281218
0.00280158
0.00278645
0.00276647
0.00273642
0.00275647
0.00277165
0.00278228
0.00278765
0.00278765
0.00278228
0.00277165
0.00275647
0.00273642
0.00270713
0.00272725
0.00274247
0.00275314
0.00275853
0.00275853
0.00275314
0.00274247
0.00272725
0.00270713
0.00267857
0.00269874
0.00271402
0.00272472
0.00273012
0.00273013
0.00272472
0.00271402
0.00269875
0.00267858
0.0026507
0.00267092
0.00268623
0.00269697
0.00270239
0.00270239
0.00269697
0.00268624
0.00267092
0.0026507
0.00262345
0.00264371
0.00265906
0.00266983
0.00267526
0.00267526
0.00266983
0.00265907
0.00264371
0.00262345
0.00259676
0.00261706
0.00263245
0.00264325
0.00264869
0.00264869
0.00264325
0.00263246
0.00261706
0.00259676
0.0025706
0.00259092
0.00260636
0.00261717
0.00262263
0.00262263
0.00261717
0.00260635
0.00259092
0.00257059
0.00254492
0.00256528
0.00258074
0.00259158
0.00259705
0.00259705
0.00259158
0.00258074
0.00256527
0.00254491
0.00251973
0.0025401
0.0025556
0.00256646
0.00257194
0.00257194
0.00256646
0.0025556
0.0025401
0.00251972
0.00249502
0.00251541
0.00253093
0.00254181
0.00254731
0.00254731
0.00254181
0.00253093
0.00251541
0.00249502
0.00247079
0.0024912
0.00250675
0.00251765
0.00252315
0.00252315
0.00251765
0.00250676
0.00249121
0.00247081
0.00244706
0.00246747
0.00248305
0.00249397
0.00249948
0.00249948
0.00249397
0.00248306
0.00246749
0.00244709
0.00242382
0.00244423
0.00245983
0.00247076
0.00247628
0.00247628
0.00247077
0.00245984
0.00244425
0.00242384
0.00240106
0.00242146
0.00243707
0.00244801
0.00245354
0.00245354
0.00244802
0.00243708
0.00242147
0.00240106
0.00237874
0.00239914
0.00241476
0.0024257
0.00243123
0.00243123
0.0024257
0.00241476
0.00239913
0.00237873
0.00235686
0.00237724
0.00239286
0.00240381
0.00240934
0.00240934
0.00240381
0.00239286
0.00237722
0.00235684
0.00233539
0.00235574
0.00237137
0.00238231
0.00238785
0.00238785
0.00238231
0.00237137
0.00235573
0.00233536
0.0023143
0.00233463
0.00235026
0.00236121
0.00236674
0.00236674
0.00236121
0.00235027
0.00233463
0.0023143
0.00229358
0.00231389
0.00232952
0.00234046
0.002346
0.002346
0.00234047
0.00232953
0.0023139
0.0022936
0.00227324
0.00229351
0.00230915
0.00232009
0.00232563
0.00232563
0.0023201
0.00230917
0.00229355
0.00227328
0.00225312
0.00227337
0.002289
0.00229994
0.00230548
0.00230548
0.00229995
0.00228902
0.0022734
0.00225317
0.00223363
0.00225384
0.00226947
0.00228041
0.00228595
0.00228595
0.00228041
0.00226948
0.00225386
0.00223366
0.00221318
0.00223334
0.00224896
0.00225989
0.00226543
0.00226542
0.00225988
0.00224895
0.00223333
0.00221317
0.00219717
0.0022173
0.00223291
0.00224382
0.00224935
0.00224934
0.0022438
0.00223287
0.00221725
0.00219712
0.00216805
0.0021881
0.00220368
0.00221457
0.00222009
0.00222008
0.00221454
0.00220363
0.00218803
0.00216796
0.00363856
0.0036548
0.00366767
0.0036766
0.00368117
0.00368117
0.0036766
0.00366767
0.0036548
0.00363856
0.00361986
0.00363628
0.00364922
0.0036582
0.0036628
0.0036628
0.0036582
0.00364922
0.00363628
0.00361986
0.00359515
0.00361176
0.00362481
0.00363388
0.00363851
0.00363851
0.00363388
0.00362481
0.00361176
0.00359515
0.00356031
0.00357713
0.0035903
0.00359946
0.00360414
0.00360414
0.00359946
0.0035903
0.00357713
0.00356031
0.00352079
0.00353781
0.00355111
0.00356036
0.00356509
0.00356509
0.00356036
0.00355111
0.00353781
0.00352079
0.0034802
0.00349743
0.00351086
0.0035202
0.00352497
0.00352497
0.0035202
0.00351086
0.00349744
0.0034802
0.00343901
0.00345645
0.00347
0.00347943
0.00348424
0.00348424
0.00347943
0.00347
0.00345645
0.00343901
0.00339711
0.00341476
0.00342843
0.00343795
0.00344281
0.00344281
0.00343795
0.00342843
0.00341476
0.00339711
0.0033549
0.00337275
0.00338654
0.00339615
0.00340104
0.00340104
0.00339615
0.00338654
0.00337275
0.0033549
0.00331285
0.00333089
0.0033448
0.00335449
0.00335942
0.00335942
0.00335449
0.0033448
0.00333089
0.00331285
0.00327123
0.00328946
0.00330347
0.00331324
0.00331822
0.00331822
0.00331324
0.00330347
0.00328946
0.00327123
0.00323017
0.00324857
0.00326269
0.00327254
0.00327755
0.00327755
0.00327254
0.00326269
0.00324857
0.00323017
0.00318974
0.00320832
0.00322254
0.00323247
0.00323751
0.00323751
0.00323247
0.00322254
0.00320832
0.00318974
0.00315003
0.00316878
0.00318309
0.00319309
0.00319817
0.00319817
0.00319309
0.0031831
0.00316878
0.00315004
0.0031111
0.00312999
0.0031444
0.00315447
0.00315958
0.00315958
0.00315447
0.0031444
0.00312999
0.0031111
0.00307296
0.003092
0.0031065
0.00311663
0.00312177
0.00312177
0.00311663
0.0031065
0.003092
0.00307296
0.00303563
0.00305481
0.0030694
0.00307959
0.00308476
0.00308476
0.00307959
0.00306939
0.00305481
0.00303563
0.00299913
0.00301844
0.0030331
0.00304336
0.00304856
0.00304856
0.00304336
0.0030331
0.00301844
0.00299913
0.00296345
0.00298288
0.00299762
0.00300794
0.00301316
0.00301316
0.00300794
0.00299762
0.00298288
0.00296345
0.00292859
0.00294814
0.00296295
0.00297332
0.00297857
0.00297857
0.00297332
0.00296295
0.00294814
0.0029286
0.00289456
0.00291421
0.00292909
0.00293951
0.00294478
0.00294478
0.00293951
0.00292909
0.00291421
0.00289456
0.00286133
0.00288108
0.00289602
0.0029065
0.00291179
0.00291179
0.0029065
0.00289603
0.00288108
0.00286134
0.00282891
0.00284875
0.00286375
0.00287427
0.00287958
0.00287958
0.00287427
0.00286376
0.00284875
0.00282892
0.00279729
0.0028172
0.00283227
0.00284283
0.00284816
0.00284816
0.00284283
0.00283227
0.00281721
0.00279729
0.00276646
0.00278645
0.00280157
0.00281217
0.00281752
0.00281752
0.00281217
0.00280157
0.00278645
0.00276646
0.00273641
0.00275647
0.00277164
0.00278228
0.00278765
0.00278765
0.00278228
0.00277164
0.00275647
0.00273641
0.00270713
0.00272724
0.00274246
0.00275314
0.00275852
0.00275852
0.00275314
0.00274246
0.00272724
0.00270713
0.00267857
0.00269874
0.00271401
0.00272471
0.00273012
0.00273012
0.00272471
0.00271401
0.00269874
0.00267857
0.00265069
0.00267091
0.00268623
0.00269696
0.00270238
0.00270238
0.00269697
0.00268623
0.00267092
0.0026507
0.00262344
0.0026437
0.00265906
0.00266983
0.00267527
0.00267527
0.00266984
0.00265907
0.00264371
0.00262345
0.00259677
0.00261707
0.00263247
0.00264326
0.00264871
0.00264871
0.00264326
0.00263247
0.00261707
0.00259676
0.00257062
0.00259095
0.00260639
0.00261721
0.00262267
0.00262266
0.0026172
0.00260638
0.00259094
0.0025706
0.00254497
0.00256533
0.0025808
0.00259164
0.0025971
0.0025971
0.00259162
0.00258077
0.00256529
0.00254493
0.00251981
0.00254018
0.00255567
0.00256653
0.002572
0.00257199
0.0025665
0.00255563
0.00254012
0.00251973
0.0024951
0.00251549
0.00253101
0.00254188
0.00254736
0.00254735
0.00254185
0.00253095
0.00251542
0.00249502
0.00247087
0.00249126
0.0025068
0.00251769
0.00252319
0.00252318
0.00251766
0.00250676
0.0024912
0.00247079
0.0024471
0.0024675
0.00248307
0.00249397
0.00249948
0.00249947
0.00249396
0.00248304
0.00246747
0.00244706
0.00242381
0.00244421
0.0024598
0.00247073
0.00247625
0.00247625
0.00247073
0.00245981
0.00244422
0.00242382
0.002401
0.0024214
0.00243702
0.00244796
0.00245349
0.0024535
0.00244798
0.00243705
0.00242145
0.00240105
0.00237866
0.00239906
0.00241469
0.00242564
0.00243119
0.0024312
0.00242568
0.00241474
0.00239913
0.00237874
0.00235678
0.00237717
0.00239281
0.00240377
0.00240931
0.00240933
0.0024038
0.00239286
0.00237724
0.00235686
0.00233534
0.00235571
0.00237135
0.00238231
0.00238785
0.00238786
0.00238232
0.00237138
0.00235575
0.00233539
0.0023143
0.00233464
0.00235028
0.00236123
0.00236677
0.00236676
0.00236123
0.00235028
0.00233464
0.00231431
0.00229363
0.00231393
0.00232956
0.0023405
0.00234603
0.00234602
0.00234048
0.00232953
0.00231389
0.00229358
0.00227331
0.00229357
0.0023092
0.00232013
0.00232565
0.00232564
0.0023201
0.00230915
0.00229351
0.00227324
0.00225319
0.00227342
0.00228904
0.00229996
0.00230549
0.00230548
0.00229994
0.00228899
0.00227336
0.00225312
0.00223367
0.00225387
0.00226949
0.00228041
0.00228594
0.00228594
0.0022804
0.00226946
0.00225383
0.00223363
0.00221318
0.00223334
0.00224896
0.00225989
0.00226542
0.00226542
0.00225989
0.00224896
0.00223334
0.00221318
0.00219715
0.00221728
0.0022329
0.00224382
0.00224936
0.00224937
0.00224384
0.00223292
0.0022173
0.00219717
0.00216798
0.00218805
0.00220366
0.00221458
0.00222012
0.00222013
0.00221461
0.00220371
0.00218812
0.00216806
)
;
    }
    inlet
    {
        type            calculated;
        value           uniform 0;
    }
    outlet
    {
        type            calculated;
        value           uniform 0;
    }
}


// ************************************************************************* //
