/*--------------------------------*- C++ -*----------------------------------*\
| =========                 |                                                 |
| \\      /  F ield         | OpenFOAM: The Open Source CFD Toolbox           |
|  \\    /   O peration     | Version:  2412                                  |
|   \\  /    A nd           | Website:  www.openfoam.com                      |
|    \\/     M anipulation  |                                                 |
\*---------------------------------------------------------------------------*/
FoamFile
{
    version     2.0;
    format      ascii;
    arch        "LSB;label=32;scalar=64";
    class       volScalarField;
    location    "0.1";
    object      p;
}
// * * * * * * * * * * * * * * * * * * * * * * * * * * * * * * * * * * * * * //

dimensions      [0 2 -2 0 0 0 0];

internalField   nonuniform List<scalar> 
15000
(
30.0492
30.0488
30.0485
30.0483
30.0481
30.0481
30.0483
30.0485
30.0489
30.0492
30.0489
30.0483
30.0478
30.0474
30.0473
30.0473
30.0475
30.0478
30.0483
30.0489
30.0485
30.0478
30.0472
30.0468
30.0466
30.0466
30.0468
30.0472
30.0478
30.0485
30.0482
30.0474
30.0468
30.0463
30.0461
30.0461
30.0463
30.0468
30.0474
30.0483
30.0481
30.0472
30.0465
30.0461
30.0458
30.0458
30.0461
30.0466
30.0473
30.0481
30.0481
30.0472
30.0465
30.0461
30.0458
30.0458
30.0461
30.0466
30.0473
30.0481
30.0482
30.0474
30.0468
30.0463
30.0461
30.0461
30.0463
30.0468
30.0474
30.0483
30.0485
30.0478
30.0472
30.0468
30.0465
30.0465
30.0468
30.0472
30.0478
30.0485
30.0488
30.0483
30.0478
30.0474
30.0472
30.0472
30.0474
30.0478
30.0483
30.0489
30.0491
30.0488
30.0485
30.0482
30.0481
30.0481
30.0483
30.0485
30.0489
30.0492
29.971
29.9708
29.9706
29.9704
29.9703
29.9703
29.9704
29.9706
29.9708
29.971
29.9708
29.9704
29.97
29.9697
29.9696
29.9696
29.9697
29.97
29.9704
29.9708
29.9706
29.97
29.9695
29.9692
29.969
29.969
29.9692
29.9695
29.97
29.9705
29.9703
29.9697
29.9691
29.9688
29.9686
29.9686
29.9688
29.9691
29.9697
29.9703
29.9702
29.9695
29.9689
29.9685
29.9683
29.9683
29.9685
29.9689
29.9695
29.9702
29.9702
29.9695
29.9689
29.9685
29.9683
29.9683
29.9685
29.9689
29.9695
29.9702
29.9703
29.9696
29.9691
29.9687
29.9685
29.9685
29.9687
29.9691
29.9696
29.9703
29.9705
29.9699
29.9694
29.9691
29.9689
29.9689
29.9691
29.9694
29.9699
29.9705
29.9707
29.9703
29.9699
29.9696
29.9695
29.9695
29.9696
29.9699
29.9703
29.9707
29.9709
29.9707
29.9705
29.9703
29.9702
29.9702
29.9703
29.9705
29.9707
29.9709
29.749
29.7487
29.7485
29.7484
29.7483
29.7483
29.7484
29.7486
29.7488
29.7491
29.7487
29.7482
29.7479
29.7476
29.7474
29.7475
29.7476
29.7479
29.7483
29.7488
29.7485
29.7478
29.7473
29.747
29.7468
29.7468
29.747
29.7474
29.7479
29.7486
29.7483
29.7475
29.747
29.7466
29.7464
29.7464
29.7466
29.747
29.7476
29.7484
29.7482
29.7474
29.7468
29.7464
29.7462
29.7462
29.7464
29.7468
29.7474
29.7483
29.7482
29.7474
29.7467
29.7463
29.7461
29.7461
29.7464
29.7468
29.7474
29.7483
29.7483
29.7475
29.7469
29.7465
29.7463
29.7463
29.7465
29.747
29.7475
29.7483
29.7484
29.7478
29.7473
29.7469
29.7467
29.7467
29.7469
29.7473
29.7478
29.7485
29.7486
29.7482
29.7478
29.7475
29.7473
29.7474
29.7475
29.7478
29.7482
29.7487
29.7489
29.7486
29.7485
29.7483
29.7482
29.7482
29.7483
29.7485
29.7487
29.749
29.4148
29.4146
29.4145
29.4144
29.4144
29.4144
29.4144
29.4146
29.4147
29.4149
29.4146
29.4142
29.414
29.4138
29.4137
29.4137
29.4138
29.414
29.4143
29.4147
29.4145
29.414
29.4137
29.4134
29.4133
29.4133
29.4134
29.4137
29.4141
29.4146
29.4144
29.4138
29.4134
29.4131
29.413
29.413
29.4132
29.4135
29.4138
29.4145
29.4143
29.4136
29.4133
29.413
29.4128
29.4128
29.413
29.4133
29.4137
29.4144
29.4143
29.4136
29.4133
29.413
29.4128
29.4128
29.413
29.4133
29.4137
29.4144
29.4144
29.4137
29.4134
29.4131
29.413
29.413
29.4131
29.4134
29.4138
29.4144
29.4145
29.4139
29.4136
29.4134
29.4132
29.4133
29.4134
29.4137
29.414
29.4146
29.4146
29.4142
29.4139
29.4137
29.4136
29.4136
29.4138
29.414
29.4143
29.4147
29.4147
29.4146
29.4145
29.4144
29.4143
29.4143
29.4144
29.4145
29.4146
29.4148
29.0067
29.0066
29.0065
29.0064
29.0064
29.0064
29.0064
29.0066
29.0066
29.0067
29.0066
29.0063
29.0061
29.006
29.0059
29.0059
29.006
29.0062
29.0063
29.0067
29.0065
29.0061
29.0059
29.0058
29.0057
29.0057
29.0058
29.006
29.0062
29.0066
29.0064
29.0059
29.0058
29.0056
29.0055
29.0055
29.0056
29.0058
29.006
29.0065
29.0063
29.0058
29.0057
29.0055
29.0054
29.0054
29.0055
29.0057
29.0059
29.0064
29.0063
29.0058
29.0057
29.0055
29.0054
29.0054
29.0055
29.0057
29.0059
29.0064
29.0064
29.0059
29.0057
29.0056
29.0055
29.0055
29.0056
29.0058
29.006
29.0064
29.0065
29.0061
29.0059
29.0057
29.0056
29.0057
29.0058
29.0059
29.0061
29.0065
29.0065
29.0062
29.0061
29.0059
29.0058
29.0059
29.0059
29.0061
29.0063
29.0066
29.0066
29.0065
29.0065
29.0064
29.0063
29.0063
29.0064
29.0065
29.0066
29.0067
28.5454
28.5453
28.5453
28.5452
28.5451
28.5451
28.5452
28.5453
28.5454
28.5454
28.5453
28.545
28.545
28.5448
28.5447
28.5447
28.5448
28.545
28.5451
28.5454
28.5453
28.5449
28.5449
28.5447
28.5446
28.5446
28.5447
28.5449
28.545
28.5453
28.5451
28.5448
28.5447
28.5446
28.5445
28.5445
28.5446
28.5447
28.5448
28.5452
28.5451
28.5447
28.5446
28.5445
28.5444
28.5444
28.5445
28.5446
28.5447
28.5451
28.5451
28.5447
28.5446
28.5445
28.5444
28.5444
28.5445
28.5446
28.5447
28.5451
28.5451
28.5448
28.5447
28.5445
28.5445
28.5445
28.5446
28.5447
28.5448
28.5452
28.5453
28.5449
28.5448
28.5447
28.5446
28.5446
28.5447
28.5449
28.545
28.5453
28.5453
28.545
28.5449
28.5448
28.5447
28.5447
28.5448
28.5449
28.5451
28.5454
28.5454
28.5453
28.5453
28.5451
28.5451
28.5451
28.5451
28.5453
28.5453
28.5454
28.0379
28.0379
28.0379
28.0377
28.0376
28.0376
28.0377
28.0379
28.0379
28.0379
28.0379
28.0377
28.0376
28.0374
28.0374
28.0374
28.0374
28.0376
28.0377
28.0379
28.0379
28.0376
28.0376
28.0375
28.0374
28.0374
28.0374
28.0376
28.0376
28.0379
28.0377
28.0374
28.0374
28.0373
28.0372
28.0372
28.0373
28.0374
28.0374
28.0377
28.0376
28.0373
28.0374
28.0372
28.0372
28.0372
28.0372
28.0374
28.0373
28.0376
28.0376
28.0373
28.0374
28.0372
28.0372
28.0372
28.0372
28.0374
28.0373
28.0376
28.0377
28.0374
28.0374
28.0373
28.0372
28.0372
28.0373
28.0374
28.0374
28.0377
28.0378
28.0376
28.0376
28.0374
28.0373
28.0373
28.0374
28.0376
28.0376
28.0379
28.0379
28.0376
28.0376
28.0374
28.0373
28.0373
28.0374
28.0376
28.0376
28.0379
28.0379
28.0379
28.0378
28.0377
28.0376
28.0376
28.0377
28.0378
28.0379
28.0379
27.4922
27.4922
27.4922
27.492
27.4919
27.4919
27.492
27.4921
27.4922
27.4921
27.4922
27.492
27.492
27.4918
27.4917
27.4917
27.4918
27.4919
27.4919
27.4922
27.4922
27.492
27.4921
27.4919
27.4919
27.4918
27.4919
27.492
27.4919
27.4921
27.492
27.4918
27.4919
27.4918
27.4918
27.4918
27.4918
27.4919
27.4918
27.492
27.4919
27.4917
27.4919
27.4918
27.4917
27.4917
27.4917
27.4918
27.4917
27.4919
27.4919
27.4917
27.4918
27.4918
27.4917
27.4917
27.4917
27.4918
27.4917
27.4919
27.492
27.4918
27.4919
27.4918
27.4917
27.4917
27.4918
27.4919
27.4918
27.492
27.4921
27.4919
27.492
27.4919
27.4918
27.4918
27.4919
27.492
27.4919
27.4921
27.4922
27.492
27.4919
27.4918
27.4917
27.4917
27.4918
27.4919
27.492
27.4922
27.4922
27.4922
27.4921
27.492
27.4919
27.4919
27.492
27.4921
27.4922
27.4922
26.9183
26.9184
26.9183
26.9181
26.918
26.918
26.918
26.9182
26.9182
26.9182
26.9184
26.9182
26.9182
26.918
26.9179
26.9179
26.9179
26.9181
26.918
26.9182
26.9183
26.9182
26.9183
26.9182
26.9181
26.9181
26.9181
26.9182
26.9181
26.9182
26.9181
26.918
26.9182
26.9181
26.918
26.918
26.9181
26.9181
26.9179
26.918
26.918
26.9179
26.9181
26.9181
26.918
26.918
26.918
26.918
26.9178
26.9179
26.918
26.9179
26.9181
26.918
26.918
26.918
26.918
26.918
26.9178
26.9179
26.9181
26.918
26.9182
26.9181
26.918
26.918
26.9181
26.9181
26.9179
26.918
26.9183
26.9181
26.9183
26.9181
26.9181
26.9181
26.9181
26.9182
26.9181
26.9182
26.9183
26.9181
26.9181
26.918
26.9179
26.9179
26.9179
26.9181
26.9181
26.9183
26.9183
26.9183
26.9183
26.9181
26.918
26.9179
26.918
26.9182
26.9183
26.9182
26.3236
26.3237
26.3236
26.3234
26.3232
26.3232
26.3233
26.3235
26.3235
26.3234
26.3237
26.3235
26.3235
26.3233
26.3232
26.3232
26.3233
26.3234
26.3234
26.3235
26.3236
26.3235
26.3237
26.3236
26.3235
26.3235
26.3235
26.3236
26.3234
26.3235
26.3234
26.3233
26.3236
26.3235
26.3234
26.3234
26.3234
26.3235
26.3232
26.3233
26.3233
26.3233
26.3235
26.3235
26.3234
26.3234
26.3234
26.3234
26.3231
26.3232
26.3233
26.3232
26.3235
26.3235
26.3234
26.3234
26.3234
26.3234
26.3231
26.3232
26.3234
26.3233
26.3236
26.3235
26.3234
26.3234
26.3234
26.3235
26.3232
26.3233
26.3236
26.3235
26.3236
26.3235
26.3235
26.3234
26.3235
26.3236
26.3234
26.3235
26.3236
26.3235
26.3235
26.3233
26.3232
26.3232
26.3233
26.3234
26.3234
26.3236
26.3236
26.3236
26.3236
26.3233
26.3232
26.3232
26.3233
26.3235
26.3236
26.3235
25.7123
25.7124
25.7123
25.7121
25.7119
25.7119
25.712
25.7122
25.7123
25.7122
25.7124
25.7122
25.7123
25.7121
25.712
25.712
25.712
25.7122
25.7122
25.7123
25.7123
25.7123
25.7124
25.7123
25.7123
25.7123
25.7123
25.7124
25.7122
25.7122
25.7121
25.7121
25.7124
25.7123
25.7122
25.7122
25.7122
25.7123
25.712
25.712
25.712
25.712
25.7123
25.7122
25.7122
25.7122
25.7122
25.7122
25.7119
25.7119
25.712
25.712
25.7123
25.7122
25.7122
25.7122
25.7122
25.7122
25.7119
25.7119
25.7121
25.7121
25.7123
25.7123
25.7122
25.7122
25.7122
25.7123
25.712
25.712
25.7123
25.7123
25.7124
25.7123
25.7123
25.7122
25.7123
25.7124
25.7122
25.7122
25.7124
25.7122
25.7122
25.7121
25.712
25.7119
25.712
25.7122
25.7122
25.7123
25.7123
25.7124
25.7123
25.7121
25.7119
25.7119
25.712
25.7122
25.7123
25.7122
25.0877
25.0878
25.0877
25.0874
25.0873
25.0873
25.0874
25.0877
25.0877
25.0877
25.0878
25.0876
25.0876
25.0874
25.0873
25.0873
25.0874
25.0876
25.0876
25.0877
25.0877
25.0876
25.0878
25.0877
25.0877
25.0877
25.0877
25.0878
25.0876
25.0876
25.0874
25.0875
25.0877
25.0877
25.0876
25.0876
25.0877
25.0877
25.0874
25.0874
25.0873
25.0874
25.0877
25.0876
25.0876
25.0876
25.0876
25.0876
25.0873
25.0873
25.0873
25.0874
25.0877
25.0876
25.0876
25.0876
25.0876
25.0876
25.0873
25.0873
25.0874
25.0875
25.0877
25.0877
25.0876
25.0876
25.0876
25.0877
25.0874
25.0874
25.0877
25.0876
25.0878
25.0877
25.0876
25.0876
25.0877
25.0878
25.0876
25.0876
25.0878
25.0876
25.0876
25.0874
25.0873
25.0873
25.0874
25.0876
25.0876
25.0877
25.0877
25.0878
25.0877
25.0874
25.0873
25.0873
25.0874
25.0876
25.0877
25.0876
24.4526
24.4527
24.4526
24.4523
24.4522
24.4522
24.4523
24.4526
24.4527
24.4526
24.4527
24.4525
24.4525
24.4523
24.4523
24.4523
24.4524
24.4526
24.4525
24.4527
24.4526
24.4525
24.4527
24.4526
24.4526
24.4526
24.4527
24.4528
24.4526
24.4526
24.4523
24.4523
24.4526
24.4526
24.4525
24.4525
24.4526
24.4526
24.4524
24.4523
24.4522
24.4522
24.4526
24.4525
24.4525
24.4525
24.4525
24.4526
24.4523
24.4522
24.4522
24.4522
24.4526
24.4525
24.4525
24.4525
24.4525
24.4526
24.4523
24.4522
24.4523
24.4524
24.4526
24.4526
24.4525
24.4525
24.4526
24.4526
24.4524
24.4523
24.4526
24.4525
24.4527
24.4526
24.4526
24.4526
24.4526
24.4527
24.4526
24.4526
24.4527
24.4525
24.4525
24.4523
24.4522
24.4523
24.4524
24.4525
24.4525
24.4527
24.4526
24.4527
24.4526
24.4523
24.4522
24.4522
24.4523
24.4526
24.4527
24.4526
23.8095
23.8096
23.8094
23.8092
23.8091
23.8091
23.8092
23.8095
23.8096
23.8095
23.8096
23.8094
23.8094
23.8092
23.8091
23.8091
23.8092
23.8094
23.8094
23.8096
23.8094
23.8094
23.8096
23.8095
23.8094
23.8094
23.8095
23.8096
23.8094
23.8094
23.8092
23.8092
23.8095
23.8094
23.8094
23.8094
23.8094
23.8095
23.8092
23.8092
23.809
23.8091
23.8094
23.8094
23.8093
23.8093
23.8094
23.8094
23.8091
23.8091
23.8091
23.8091
23.8094
23.8094
23.8093
23.8093
23.8094
23.8094
23.8091
23.8091
23.8092
23.8092
23.8095
23.8094
23.8094
23.8094
23.8094
23.8095
23.8092
23.8092
23.8095
23.8094
23.8096
23.8095
23.8094
23.8094
23.8095
23.8096
23.8094
23.8095
23.8096
23.8094
23.8094
23.8092
23.8091
23.8091
23.8092
23.8094
23.8094
23.8096
23.8095
23.8096
23.8095
23.8092
23.8091
23.8091
23.8092
23.8095
23.8096
23.8095
23.1602
23.1603
23.1601
23.1599
23.1597
23.1597
23.1598
23.1601
23.1602
23.1601
23.1603
23.1601
23.1601
23.1599
23.1598
23.1598
23.1599
23.1601
23.1601
23.1602
23.1601
23.1601
23.1603
23.1601
23.1601
23.1601
23.1601
23.1602
23.1601
23.1601
23.1599
23.1599
23.1602
23.1601
23.16
23.16
23.1601
23.1601
23.1599
23.1598
23.1598
23.1598
23.1601
23.16
23.16
23.16
23.16
23.1601
23.1598
23.1597
23.1598
23.1598
23.1601
23.16
23.16
23.16
23.16
23.1601
23.1598
23.1597
23.1599
23.1599
23.1602
23.1601
23.16
23.1601
23.1601
23.1602
23.1599
23.1599
23.1602
23.1601
23.1603
23.1602
23.1601
23.1601
23.1602
23.1603
23.1601
23.1602
23.1603
23.1601
23.1601
23.1599
23.1598
23.1598
23.1599
23.1601
23.1602
23.1603
23.1603
23.1603
23.1602
23.1599
23.1598
23.1598
23.1599
23.1602
23.1603
23.1603
22.5063
22.5064
22.5062
22.506
22.5058
22.5058
22.5059
22.5061
22.5062
22.5062
22.5064
22.5062
22.5062
22.506
22.5059
22.5058
22.5059
22.5061
22.5061
22.5062
22.5063
22.5062
22.5064
22.5062
22.5061
22.5061
22.5062
22.5063
22.5061
22.5061
22.506
22.506
22.5062
22.5062
22.5061
22.5061
22.5061
22.5062
22.5059
22.5059
22.5059
22.5059
22.5062
22.5061
22.5061
22.5061
22.5061
22.5061
22.5058
22.5058
22.5059
22.5059
22.5062
22.5061
22.5061
22.5061
22.5061
22.5061
22.5059
22.5058
22.506
22.506
22.5063
22.5062
22.5061
22.5061
22.5062
22.5062
22.506
22.5059
22.5063
22.5063
22.5064
22.5063
22.5062
22.5062
22.5063
22.5064
22.5062
22.5062
22.5064
22.5063
22.5062
22.506
22.5059
22.5059
22.506
22.5062
22.5062
22.5064
22.5064
22.5064
22.5063
22.506
22.5059
22.5059
22.506
22.5063
22.5064
22.5063
21.8494
21.8493
21.8492
21.849
21.8488
21.8488
21.8489
21.8491
21.8492
21.8492
21.8494
21.8492
21.8492
21.849
21.8489
21.8489
21.8489
21.8491
21.8491
21.8492
21.8493
21.8492
21.8494
21.8493
21.8492
21.8492
21.8492
21.8493
21.8491
21.8491
21.849
21.8491
21.8493
21.8492
21.8491
21.8491
21.8491
21.8492
21.8489
21.8489
21.8489
21.849
21.8493
21.8492
21.8491
21.8491
21.8491
21.8491
21.8488
21.8488
21.849
21.849
21.8493
21.8492
21.8492
21.8491
21.8491
21.8492
21.8489
21.8488
21.8491
21.8491
21.8493
21.8493
21.8492
21.8492
21.8492
21.8493
21.849
21.8489
21.8493
21.8493
21.8495
21.8493
21.8493
21.8492
21.8493
21.8494
21.8492
21.8492
21.8494
21.8493
21.8493
21.8491
21.849
21.849
21.849
21.8492
21.8492
21.8493
21.8494
21.8494
21.8493
21.8491
21.8489
21.8489
21.849
21.8492
21.8493
21.8493
21.1913
21.1912
21.1912
21.1909
21.1908
21.1908
21.1909
21.1911
21.1912
21.1912
21.1912
21.1911
21.1911
21.191
21.1909
21.1909
21.1909
21.1911
21.191
21.1912
21.1912
21.1912
21.1913
21.1912
21.1912
21.1912
21.1912
21.1913
21.1911
21.1911
21.191
21.191
21.1913
21.1912
21.1912
21.1912
21.1912
21.1912
21.1909
21.1909
21.1909
21.191
21.1912
21.1912
21.1912
21.1912
21.1912
21.1912
21.1909
21.1908
21.1909
21.191
21.1913
21.1912
21.1912
21.1912
21.1912
21.1912
21.1909
21.1908
21.191
21.1911
21.1913
21.1913
21.1912
21.1912
21.1912
21.1912
21.191
21.1909
21.1912
21.1912
21.1914
21.1913
21.1912
21.1912
21.1913
21.1913
21.1911
21.1911
21.1913
21.1912
21.1912
21.191
21.191
21.1909
21.191
21.1911
21.1911
21.1912
21.1914
21.1913
21.1912
21.191
21.1909
21.1909
21.191
21.1911
21.1912
21.1913
20.5349
20.5347
20.5347
20.5345
20.5345
20.5345
20.5346
20.5348
20.5349
20.5351
20.5347
20.5346
20.5347
20.5345
20.5345
20.5345
20.5346
20.5347
20.5347
20.5348
20.5347
20.5347
20.5349
20.5348
20.5348
20.5348
20.5349
20.5349
20.5347
20.5348
20.5345
20.5346
20.5348
20.5348
20.5348
20.5348
20.5349
20.5349
20.5346
20.5346
20.5345
20.5345
20.5348
20.5348
20.5348
20.5348
20.5348
20.5348
20.5345
20.5345
20.5344
20.5345
20.5348
20.5348
20.5348
20.5348
20.5348
20.5348
20.5345
20.5344
20.5345
20.5346
20.5349
20.5348
20.5348
20.5348
20.5348
20.5348
20.5345
20.5345
20.5347
20.5347
20.5349
20.5348
20.5348
20.5348
20.5348
20.5348
20.5346
20.5346
20.5348
20.5346
20.5347
20.5345
20.5345
20.5345
20.5345
20.5346
20.5345
20.5347
20.5349
20.5347
20.5347
20.5345
20.5344
20.5344
20.5345
20.5346
20.5347
20.5348
19.8831
19.8827
19.8827
19.8826
19.8826
19.8827
19.8828
19.883
19.883
19.8834
19.8827
19.8825
19.8826
19.8826
19.8826
19.8827
19.8827
19.8828
19.8828
19.883
19.8827
19.8826
19.8829
19.8829
19.8829
19.883
19.883
19.883
19.8828
19.8829
19.8825
19.8825
19.8829
19.8829
19.883
19.883
19.883
19.883
19.8827
19.8828
19.8825
19.8825
19.8829
19.8829
19.883
19.883
19.883
19.883
19.8827
19.8826
19.8825
19.8825
19.8829
19.8829
19.883
19.883
19.883
19.8829
19.8826
19.8826
19.8825
19.8825
19.8828
19.8829
19.8829
19.8829
19.8829
19.8829
19.8826
19.8826
19.8827
19.8825
19.8828
19.8828
19.8828
19.8828
19.8828
19.8828
19.8826
19.8826
19.8826
19.8824
19.8825
19.8825
19.8825
19.8825
19.8825
19.8826
19.8824
19.8826
19.883
19.8826
19.8826
19.8825
19.8824
19.8824
19.8825
19.8826
19.8826
19.883
19.2387
19.2378
19.238
19.2379
19.238
19.238
19.2381
19.2383
19.2382
19.2392
19.2378
19.2375
19.2378
19.2378
19.2379
19.2379
19.238
19.238
19.2379
19.2382
19.2379
19.2377
19.238
19.2381
19.2382
19.2383
19.2383
19.2382
19.238
19.2382
19.2378
19.2377
19.238
19.2382
19.2383
19.2383
19.2383
19.2383
19.238
19.2381
19.2377
19.2377
19.2381
19.2382
19.2383
19.2384
19.2383
19.2382
19.2379
19.2379
19.2377
19.2376
19.238
19.2382
19.2383
19.2383
19.2383
19.2381
19.2378
19.2378
19.2377
19.2376
19.238
19.2381
19.2381
19.2382
19.2381
19.238
19.2377
19.2378
19.2378
19.2375
19.2378
19.2379
19.238
19.238
19.2379
19.2379
19.2376
19.2378
19.2377
19.2374
19.2375
19.2376
19.2376
19.2376
19.2376
19.2376
19.2374
19.2377
19.2385
19.2376
19.2377
19.2376
19.2375
19.2375
19.2376
19.2376
19.2376
19.2385
18.6092
18.6074
18.6076
18.6076
18.6077
18.6077
18.6078
18.6079
18.6078
18.6098
18.6073
18.6066
18.6071
18.6072
18.6073
18.6073
18.6073
18.6072
18.6071
18.6077
18.6075
18.607
18.6073
18.6075
18.6077
18.6078
18.6077
18.6075
18.6072
18.6077
18.6074
18.607
18.6074
18.6076
18.6078
18.6078
18.6078
18.6076
18.6073
18.6076
18.6073
18.607
18.6075
18.6077
18.6079
18.6079
18.6078
18.6076
18.6072
18.6075
18.6073
18.6069
18.6075
18.6076
18.6078
18.6079
18.6077
18.6075
18.6071
18.6074
18.6073
18.6069
18.6073
18.6075
18.6076
18.6076
18.6075
18.6073
18.607
18.6073
18.6073
18.6066
18.607
18.6072
18.6073
18.6073
18.6072
18.607
18.6068
18.6072
18.6072
18.6064
18.6066
18.6068
18.6068
18.6068
18.6068
18.6067
18.6064
18.6071
18.6091
18.607
18.6071
18.6071
18.607
18.607
18.607
18.607
18.607
18.609
18.0153
18.0113
18.0115
18.0115
18.0115
18.0115
18.0116
18.0116
18.0117
18.0157
18.0113
18.0094
18.0099
18.0102
18.0103
18.0103
18.0102
18.0099
18.0098
18.0115
18.0113
18.0099
18.0101
18.0103
18.0106
18.0106
18.0105
18.01
18.0098
18.0112
18.0112
18.01
18.0102
18.0105
18.0108
18.0108
18.0106
18.0103
18.0101
18.0112
18.0113
18.01
18.0104
18.0107
18.011
18.0109
18.0106
18.0103
18.01
18.011
18.0112
18.01
18.0104
18.0106
18.0109
18.0109
18.0105
18.0101
18.01
18.0109
18.0113
18.0099
18.0103
18.0104
18.0105
18.0105
18.0102
18.0098
18.0097
18.0107
18.0112
18.0095
18.0097
18.0101
18.0101
18.01
18.0097
18.0094
18.0094
18.0105
18.0113
18.0094
18.0095
18.0097
18.0097
18.0097
18.0096
18.0093
18.0092
18.0108
18.0152
18.011
18.0108
18.0108
18.0107
18.0107
18.0106
18.0104
18.0107
18.0148
17.4912
17.4839
17.4834
17.4833
17.4835
17.4835
17.4835
17.4833
17.4841
17.4912
17.4839
17.4799
17.4801
17.4803
17.4805
17.4804
17.4802
17.4796
17.4801
17.4836
17.4834
17.4801
17.4795
17.4798
17.4802
17.4802
17.4799
17.4791
17.4795
17.4825
17.4833
17.4803
17.4798
17.48
17.4803
17.4802
17.4799
17.4795
17.4799
17.4826
17.4836
17.4805
17.4802
17.4803
17.4807
17.4805
17.48
17.4795
17.4799
17.4824
17.4835
17.4805
17.4802
17.4802
17.4805
17.4805
17.4799
17.4793
17.4799
17.4823
17.4836
17.4803
17.48
17.48
17.48
17.4799
17.4794
17.4789
17.4795
17.482
17.4834
17.4797
17.4792
17.4796
17.4795
17.4793
17.4789
17.4783
17.479
17.4817
17.4843
17.4802
17.4796
17.48
17.48
17.4799
17.4796
17.479
17.4793
17.4828
17.4914
17.4837
17.4827
17.4827
17.4825
17.4824
17.4821
17.4817
17.4829
17.4901
17.0597
17.0492
17.0476
17.0475
17.0479
17.0478
17.0476
17.0472
17.049
17.0591
17.0493
17.0429
17.0421
17.0424
17.0427
17.0425
17.0421
17.0413
17.0427
17.0481
17.0478
17.0422
17.0402
17.0404
17.0408
17.0408
17.0403
17.0394
17.0409
17.0459
17.0478
17.0426
17.0405
17.0405
17.0408
17.0407
17.0402
17.0397
17.0414
17.046
17.0483
17.043
17.041
17.0409
17.0413
17.041
17.0403
17.0398
17.0416
17.046
17.0483
17.043
17.0411
17.0408
17.0411
17.0409
17.0401
17.0396
17.0415
17.0459
17.0482
17.0426
17.0407
17.0405
17.0404
17.0402
17.0395
17.0389
17.041
17.0453
17.0479
17.0418
17.0398
17.0401
17.04
17.0398
17.039
17.0383
17.0402
17.0448
17.0498
17.0434
17.0416
17.042
17.042
17.0419
17.0412
17.0403
17.0416
17.0472
17.06
17.0489
17.0466
17.0466
17.0465
17.0463
17.0457
17.0451
17.0473
17.0576
16.678
16.6666
16.6641
16.6643
16.6649
16.6648
16.6643
16.6635
16.6659
16.6769
16.6667
16.6596
16.6577
16.6582
16.6587
16.6585
16.6579
16.6567
16.6588
16.6649
16.6643
16.6578
16.6545
16.6547
16.6552
16.6551
16.6544
16.6534
16.6561
16.6619
16.6646
16.6585
16.6548
16.6547
16.655
16.6548
16.6542
16.6537
16.6568
16.6623
16.6653
16.659
16.6554
16.6551
16.6554
16.6552
16.6544
16.6539
16.6572
16.6625
16.6652
16.6589
16.6554
16.655
16.6552
16.655
16.6542
16.6537
16.6571
16.6624
16.6648
16.6583
16.6548
16.6545
16.6545
16.6543
16.6535
16.6529
16.6563
16.6616
16.6641
16.6572
16.6539
16.6541
16.6542
16.6539
16.653
16.6522
16.6552
16.6607
16.6666
16.6594
16.6567
16.6573
16.6575
16.6574
16.6565
16.6553
16.6573
16.6636
16.6776
16.6655
16.6625
16.6628
16.663
16.6628
16.6619
16.6609
16.6637
16.6747
16.222
16.2136
16.2115
16.2125
16.2133
16.2132
16.2123
16.2109
16.2127
16.2208
16.2137
16.2087
16.2067
16.2079
16.2086
16.2085
16.2075
16.206
16.2077
16.2121
16.2116
16.2067
16.2035
16.2041
16.2047
16.2046
16.2037
16.2026
16.2054
16.2097
16.2127
16.208
16.2042
16.2044
16.2049
16.2048
16.204
16.2032
16.2066
16.2108
16.2135
16.2088
16.2049
16.205
16.2053
16.2052
16.2044
16.2038
16.2073
16.2115
16.2135
16.2088
16.2048
16.2049
16.2052
16.2051
16.2043
16.2037
16.2073
16.2114
16.2127
16.2078
16.204
16.2042
16.2045
16.2044
16.2036
16.2028
16.2062
16.2104
16.2113
16.2063
16.2029
16.2035
16.204
16.2038
16.2029
16.2018
16.2047
16.2089
16.213
16.208
16.2058
16.2069
16.2076
16.2074
16.2063
16.2047
16.2065
16.2109
16.2212
16.2124
16.2101
16.2111
16.2118
16.2116
16.2105
16.209
16.211
16.2191
15.5624
15.5593
15.5588
15.5607
15.5617
15.5616
15.5604
15.5582
15.5582
15.5611
15.5599
15.5588
15.5578
15.5597
15.5607
15.5607
15.5595
15.5574
15.5576
15.5586
15.5598
15.5583
15.5564
15.5577
15.5584
15.5582
15.5572
15.5558
15.5574
15.5585
15.562
15.5605
15.558
15.559
15.5596
15.5595
15.5586
15.5573
15.5594
15.5606
15.5631
15.5618
15.559
15.5599
15.5604
15.5604
15.5596
15.5585
15.5608
15.5619
15.5633
15.5621
15.5592
15.5602
15.5607
15.5606
15.5599
15.5588
15.561
15.5621
15.5623
15.5611
15.5585
15.5596
15.5603
15.5602
15.5594
15.5581
15.5601
15.5612
15.5603
15.5593
15.5573
15.5585
15.5595
15.5594
15.5584
15.5569
15.5582
15.5593
15.5604
15.5597
15.5592
15.561
15.5621
15.562
15.5608
15.5587
15.5589
15.5595
15.5635
15.5608
15.5605
15.5625
15.5636
15.5635
15.5623
15.5602
15.56
15.5625
14.6734
14.6754
14.6763
14.6787
14.6796
14.6796
14.6784
14.6759
14.6741
14.6725
14.6767
14.6792
14.6793
14.6815
14.6826
14.6826
14.6815
14.6795
14.6782
14.6762
14.6793
14.6811
14.6807
14.6824
14.683
14.683
14.682
14.6805
14.6805
14.6789
14.6825
14.6843
14.6834
14.6849
14.6855
14.6855
14.6847
14.6831
14.6835
14.6819
14.6841
14.6861
14.685
14.6865
14.6871
14.6871
14.6865
14.685
14.6855
14.6838
14.6847
14.6869
14.6858
14.6874
14.6881
14.6881
14.6874
14.686
14.6862
14.6845
14.684
14.6864
14.6856
14.6873
14.6883
14.6884
14.6876
14.686
14.6859
14.684
14.6821
14.685
14.6849
14.6866
14.6878
14.6879
14.687
14.6852
14.6845
14.6824
14.6811
14.6845
14.6859
14.6881
14.6894
14.6895
14.6884
14.6861
14.6844
14.6814
14.6798
14.683
14.6847
14.6871
14.6885
14.6885
14.6875
14.6851
14.6827
14.6799
13.6539
13.6594
13.6612
13.6634
13.6644
13.6648
13.6643
13.6627
13.6609
13.6576
13.66
13.6652
13.6663
13.6684
13.6696
13.6703
13.67
13.6689
13.6677
13.6652
13.6646
13.6688
13.67
13.6717
13.6726
13.6731
13.673
13.6723
13.6721
13.6697
13.6683
13.6724
13.6734
13.6751
13.676
13.6766
13.6765
13.6755
13.6754
13.6731
13.6701
13.6745
13.6753
13.6771
13.6781
13.6788
13.6788
13.6779
13.6777
13.6752
13.671
13.6757
13.6766
13.6786
13.6797
13.6803
13.6803
13.6794
13.6788
13.6763
13.6709
13.6759
13.6771
13.6793
13.6807
13.6813
13.6812
13.6801
13.6792
13.6766
13.6699
13.6755
13.6773
13.6793
13.6809
13.6816
13.6814
13.6801
13.6788
13.6758
13.6688
13.675
13.6779
13.6803
13.682
13.6826
13.6823
13.6807
13.6787
13.6747
13.6656
13.6728
13.676
13.6784
13.68
13.6806
13.6802
13.6784
13.6755
13.6707
12.6368
12.6457
12.6499
12.6529
12.6551
12.6572
12.6587
12.6596
12.6603
12.6584
12.6415
12.6497
12.6539
12.6572
12.6599
12.6625
12.6645
12.666
12.6673
12.6665
12.6457
12.6531
12.6576
12.661
12.6636
12.6661
12.6682
12.67
12.6719
12.6713
12.6488
12.656
12.6606
12.6641
12.6668
12.6694
12.6715
12.673
12.6748
12.6742
12.6504
12.6576
12.6622
12.6659
12.6687
12.6713
12.6736
12.675
12.6766
12.6758
12.6514
12.6587
12.6634
12.6673
12.6701
12.6727
12.6748
12.6762
12.6774
12.6766
12.6518
12.6594
12.6643
12.6682
12.6713
12.6738
12.6758
12.6769
12.6778
12.6771
12.6519
12.66
12.6653
12.6689
12.6719
12.6744
12.6763
12.6773
12.6778
12.677
12.6517
12.6602
12.6659
12.6695
12.6724
12.6746
12.6763
12.677
12.6771
12.6755
12.649
12.6589
12.6645
12.6677
12.6701
12.672
12.6733
12.6736
12.6727
12.67
11.7187
11.7301
11.7391
11.745
11.7497
11.7541
11.7581
11.7621
11.7661
11.7663
11.7178
11.7288
11.7384
11.7451
11.7506
11.7557
11.7604
11.7651
11.7697
11.7709
11.7169
11.7275
11.7377
11.7449
11.7508
11.7563
11.7614
11.7665
11.7715
11.773
11.7165
11.7268
11.7373
11.7447
11.7509
11.7567
11.762
11.767
11.772
11.7738
11.7158
11.7259
11.7364
11.744
11.7503
11.7562
11.7617
11.7667
11.7716
11.7736
11.7152
11.725
11.7355
11.7432
11.7495
11.7553
11.7608
11.7658
11.7706
11.773
11.7149
11.7245
11.7349
11.7426
11.7489
11.7546
11.7599
11.7648
11.7695
11.7723
11.715
11.7246
11.7349
11.7422
11.7481
11.7535
11.7587
11.7635
11.7681
11.7713
11.7145
11.7238
11.7338
11.7405
11.746
11.7509
11.7557
11.7601
11.7646
11.7678
11.7119
11.7222
11.7317
11.7376
11.7423
11.7466
11.7508
11.7546
11.758
11.7602
10.9531
10.9614
10.9714
10.9781
10.9832
10.9874
10.9913
10.9957
11
10.9998
10.9472
10.9553
10.9659
10.9733
10.9791
10.9839
10.9884
10.9932
10.9977
10.9984
10.939
10.9472
10.9584
10.9666
10.9732
10.9787
10.9838
10.9892
10.9942
10.9955
10.933
10.9407
10.9521
10.9607
10.9677
10.9738
10.9794
10.9852
10.9905
10.9924
10.928
10.9351
10.9464
10.9552
10.9624
10.9687
10.9748
10.9808
10.9865
10.9891
10.9237
10.9303
10.9413
10.9499
10.9571
10.9635
10.9698
10.9762
10.9822
10.9856
10.9203
10.9261
10.9367
10.945
10.9519
10.9583
10.9647
10.9713
10.9778
10.9822
10.9174
10.9222
10.9321
10.94
10.9464
10.9525
10.9588
10.9655
10.9725
10.978
10.9129
10.9165
10.9254
10.9324
10.9383
10.9438
10.9498
10.9564
10.9637
10.9703
10.9071
10.9109
10.9193
10.9256
10.9308
10.936
10.9416
10.9479
10.9546
10.9606
10.3224
10.3214
10.3238
10.3253
10.3258
10.3258
10.326
10.3267
10.3262
10.3222
10.3185
10.3171
10.3191
10.3205
10.3209
10.3207
10.3205
10.3208
10.3197
10.3162
10.3093
10.3079
10.3101
10.3118
10.3126
10.3127
10.3129
10.3135
10.3127
10.3096
10.3015
10.2997
10.3017
10.3035
10.3046
10.3051
10.3055
10.3064
10.306
10.3037
10.2948
10.2925
10.2941
10.2957
10.2967
10.2974
10.2983
10.2996
10.2998
10.2982
10.2887
10.2857
10.2867
10.2879
10.2888
10.2896
10.2908
10.2926
10.2935
10.2927
10.2828
10.2787
10.279
10.2798
10.2803
10.2811
10.2825
10.2849
10.2866
10.2868
10.2761
10.2708
10.2702
10.2704
10.2706
10.2712
10.2728
10.2756
10.2782
10.2797
10.2669
10.2603
10.2585
10.2581
10.2579
10.2583
10.2599
10.2631
10.2665
10.2694
10.2579
10.2513
10.2494
10.249
10.2489
10.2497
10.2517
10.2552
10.259
10.2618
9.73342
9.7239
9.71617
9.70994
9.70392
9.69813
9.69275
9.68729
9.67864
9.66951
9.73636
9.72628
9.71726
9.70999
9.70294
9.69599
9.68927
9.68225
9.67222
9.66313
9.73366
9.7237
9.71426
9.70649
9.69893
9.69148
9.68428
9.67673
9.66619
9.65696
9.73053
9.72054
9.71059
9.70236
9.69446
9.68666
9.67911
9.67132
9.66081
9.65166
9.72764
9.71761
9.70705
9.69831
9.69008
9.6821
9.67447
9.66676
9.65652
9.64752
9.72476
9.71446
9.70331
9.69407
9.68557
9.67749
9.66995
9.66252
9.65269
9.64385
9.72123
9.71044
9.69866
9.689
9.6803
9.67222
9.66489
9.65789
9.64861
9.63999
9.71624
9.70484
9.6924
9.6825
9.67374
9.66578
9.65875
9.6523
9.64373
9.63558
9.70938
9.69758
9.68473
9.67479
9.66612
9.65842
9.65185
9.64608
9.63845
9.63089
9.70373
9.69222
9.68005
9.67093
9.66319
9.65654
9.65113
9.64659
9.64033
9.6329
9.11551
9.10255
9.08961
9.07892
9.06906
9.05974
9.05056
9.04018
9.02606
9.01664
9.12386
9.11064
9.09654
9.08474
9.07375
9.06311
9.05236
9.04023
9.02469
9.01486
9.12925
9.11672
9.10231
9.08976
9.07793
9.06641
9.05473
9.04151
9.02478
9.01391
9.13254
9.12078
9.10612
9.09311
9.08072
9.06852
9.05608
9.04225
9.02502
9.01331
9.13563
9.12462
9.10977
9.09646
9.08381
9.07124
9.05834
9.04416
9.02669
9.01427
9.13864
9.12827
9.11334
9.09991
9.08722
9.07457
9.06153
9.04726
9.02969
9.01658
9.14119
9.13133
9.11641
9.10306
9.09056
9.0781
9.06522
9.05114
9.03364
9.01988
9.14314
9.13377
9.11901
9.10596
9.09387
9.08188
9.06946
9.05584
9.03864
9.02429
9.14538
9.13665
9.12242
9.11002
9.09862
9.08738
9.07581
9.06309
9.04661
9.03178
9.14783
9.13975
9.12662
9.1154
9.10524
9.09529
9.08507
9.07395
9.05934
9.04467
8.47051
8.45906
8.4468
8.43685
8.42831
8.42068
8.41324
8.4048
8.39523
8.39386
8.48047
8.46922
8.45692
8.44662
8.43766
8.4294
8.42111
8.41173
8.40138
8.39939
8.49194
8.48185
8.46984
8.45929
8.44983
8.44096
8.43189
8.42143
8.40972
8.40617
8.49987
8.4912
8.4797
8.4692
8.45952
8.45018
8.44049
8.42943
8.41684
8.41183
8.50713
8.49975
8.48886
8.47866
8.4691
8.45955
8.44935
8.43775
8.42451
8.41828
8.51426
8.5081
8.49785
8.48813
8.47892
8.46948
8.4591
8.44717
8.43346
8.42617
8.52147
8.51644
8.50689
8.49777
8.48913
8.48008
8.46986
8.45788
8.4439
8.43564
8.52923
8.52526
8.51652
8.50815
8.50025
8.49187
8.48214
8.47045
8.4564
8.44708
8.53857
8.53568
8.52792
8.52052