/*--------------------------------*- C++ -*----------------------------------*\
| =========                 |                                                 |
| \\      /  F ield         | OpenFOAM: The Open Source CFD Toolbox           |
|  \\    /   O peration     | Version:  2412                                  |
|   \\  /    A nd           | Website:  www.openfoam.com                      |
|    \\/     M anipulation  |                                                 |
\*---------------------------------------------------------------------------*/
FoamFile
{
    version     2.0;
    format      ascii;
    arch        "LSB;label=32;scalar=64";
    class       surfaceScalarField;
    location    "0.1";
    object      phi;
}
// * * * * * * * * * * * * * * * * * * * * * * * * * * * * * * * * * * * * * //

dimensions      [0 3 -1 0 0 0 0];

oriented        oriented;

internalField   nonuniform List<scalar> 
43700
(
4.87545e-07
4.86857e-07
0.000705208
-5.78288e-07
-5.76385e-07
3.94761e-07
4.8738e-07
0.000764272
-5.93186e-07
2.72819e-07
4.79447e-07
0.000809353
-5.67454e-07
1.38296e-07
4.69654e-07
0.000839783
-5.5212e-07
-9.466e-10
4.63139e-07
0.000855112
-5.44058e-07
-1.39978e-07
4.62326e-07
0.000855112
-5.4295e-07
-2.74034e-07
4.6724e-07
0.000839783
-5.48685e-07
-3.95969e-07
4.75482e-07
0.000809353
-5.61159e-07
-4.90498e-07
4.81569e-07
0.000764272
-5.83167e-07
4.77715e-07
0.000705208
-5.86136e-07
-5.62043e-07
4.88692e-07
3.95784e-07
0.000764273
-5.95347e-07
3.80468e-07
3.80881e-07
0.000818976
2.61131e-07
3.74226e-07
0.000860757
1.3237e-07
3.67502e-07
0.000888973
-1.57376e-09
3.63283e-07
0.00090319
-1.35559e-07
3.63152e-07
0.00090319
-2.64628e-07
3.67222e-07
0.000888973
-3.8508e-07
3.7425e-07
0.000860757
-4.98018e-07
3.82668e-07
0.000818976
4.04164e-07
0.000764273
-6.07032e-07
4.81305e-07
2.7387e-07
0.000809353
-5.70114e-07
3.74023e-07
2.61534e-07
0.000860757
2.55954e-07
2.55925e-07
0.000900041
1.29543e-07
2.51002e-07
0.000926582
-1.56631e-09
2.48012e-07
0.000939958
-1.32627e-07
2.47716e-07
0.000939958
-2.59039e-07
2.50171e-07
0.000926582
-3.7727e-07
2.54738e-07
0.000900041
-4.87468e-07
2.60763e-07
0.000860757
2.76837e-07
0.000809353
-5.78888e-07
4.71903e-07
1.39613e-07
0.000839783
-5.55435e-07
3.67116e-07
1.33133e-07
0.000888973
2.51032e-07
1.29871e-07
0.000926582
1.26837e-07
1.27171e-07
0.000951998
-1.89674e-09
1.25582e-07
0.00096481
-1.30487e-07
1.25386e-07
0.00096481
-2.54369e-07
1.26571e-07
0.000951998
-3.69657e-07
1.28865e-07
0.000926582
-4.74599e-07
1.31866e-07
0.000888973
1.40437e-07
0.000839783
-5.62722e-07
4.65952e-07
3.21559e-10
0.000855112
-5.48179e-07
3.62776e-07
-5.27886e-10
0.00090319
2.4809e-07
-9.76585e-10
0.000939958
1.25268e-07
-1.34696e-09
0.00096481
-2.12518e-09
-1.63032e-09
0.000977339
-1.29391e-07
-1.76992e-09
0.000977339
-2.51858e-07
-1.81178e-09
0.00096481
-3.65485e-07
-1.83399e-09
0.000939958
-4.67206e-07
-1.87324e-09
0.00090319
-2.43199e-11
0.000855112
-5.53809e-07
4.6581e-07
-1.38926e-07
0.000855112
-5.48096e-07
3.62489e-07
-1.34151e-07
0.00090319
2.47816e-07
-1.31815e-07
0.000939958
1.25034e-07
-1.29865e-07
0.00096481
-2.25708e-09
-1.289e-07
0.000977339
-1.29481e-07
-1.29115e-07
0.000977339
-2.51961e-07
-1.30509e-07
0.00096481
-3.65646e-07
-1.32866e-07
0.000939958
-4.6677e-07
-1.35691e-07
0.00090319
-1.40152e-07
0.000855112
-5.52744e-07
4.71413e-07
-2.73239e-07
0.000839783
-5.55094e-07
3.66215e-07
-2.62521e-07
0.000888973
2.50211e-07
-2.58005e-07
0.000926582
1.26086e-07
-2.53942e-07
0.000951998
-2.42907e-09
-2.51647e-07
0.00096481
-1.30892e-07
-2.51924e-07
0.00096481
-2.54705e-07
-2.54742e-07
0.000951998
-3.69938e-07
-2.59319e-07
0.000926582
-4.72704e-07
-2.6433e-07
0.000888973
-2.75095e-07
0.000839783
-5.59272e-07
4.80189e-07
-3.95039e-07
0.000809353
-5.69188e-07
3.72272e-07
-3.81248e-07
0.000860757
2.54492e-07
-3.75673e-07
0.000900041
1.28222e-07
-3.69786e-07
0.000926582
-2.6231e-09
-3.66124e-07
0.000939958
-1.33394e-07
-3.66425e-07
0.000939958
-2.59366e-07
-3.70697e-07
0.000926582
-3.76683e-07
-3.7728e-07
0.000900041
-4.82186e-07
-3.83309e-07
0.000860757
-3.9718e-07
0.000809353
-5.73278e-07
4.86503e-07
-4.87622e-07
0.000764273
-5.93734e-07
3.77811e-07
-4.89312e-07
0.000818976
2.5917e-07
-4.82903e-07
0.000860757
1.30798e-07
-4.74366e-07
0.000888973
-2.78977e-09
-4.68852e-07
0.00090319
-1.36312e-07
-4.69058e-07
0.00090319
-2.64493e-07
-4.75034e-07
0.000888973
-3.82932e-07
-4.84213e-07
0.000860757
-4.89443e-07
-4.91005e-07
0.000818976
-4.90223e-07
0.000764273
-5.98037e-07
4.84314e-07
0.000705208
-5.79402e-07
-5.75982e-07
3.91883e-07
0.000764273
-5.96887e-07
2.70733e-07
0.000809353
-5.72209e-07
1.36577e-07
0.000839783
-5.58203e-07
-2.61489e-09
0.000855112
-5.51449e-07
-1.41744e-07
0.000855112
-5.5175e-07
-2.75819e-07
0.000839783
-5.59133e-07
-3.9719e-07
0.000809353
-5.73716e-07
-4.88843e-07
0.000764273
-5.99044e-07
0.000705208
-5.81194e-07
-5.82633e-07
1.38051e-06
1.38041e-06
0.000705725
-1.63957e-06
-1.63796e-06
1.08994e-06
1.35935e-06
0.00076483
-1.63289e-06
7.51933e-07
1.34779e-06
0.000809944
-1.60389e-06
3.82896e-07
1.33448e-06
0.000840397
-1.58317e-06
-1.48726e-10
1.32587e-06
0.000855737
-1.57187e-06
-3.82805e-07
1.32609e-06
0.000855737
-1.57248e-06
-7.50678e-07
1.33503e-06
0.000840397
-1.58503e-06
-1.08777e-06
1.34829e-06
0.000809944
-1.60666e-06
-1.37224e-06
1.35882e-06
0.00076483
-1.6363e-06
1.37852e-06
0.000705724
-1.63167e-06
-1.63971e-06
1.35963e-06
1.08977e-06
0.00076483
-1.63352e-06
1.05794e-06
1.05702e-06
0.000819573
7.26553e-07
1.04588e-06
0.000861384
3.70135e-07
1.03624e-06
0.000889621
4.2399e-10
1.03028e-06
0.000903849
-3.68932e-07
1.03014e-06
0.000903849
-7.24254e-07
1.03569e-06
0.000889621
-1.05369e-06
1.04434e-06
0.000861384
-1.35028e-06
1.05309e-06
0.000819572
1.08229e-06
0.00076483
-1.6203e-06
1.3475e-06
7.52422e-07
0.000809944
-1.60369e-06
1.04656e-06
7.25936e-07
0.000861384
7.16578e-07
7.16088e-07
0.000900697
3.64374e-07
7.08913e-07
0.000927257
3.11888e-10
7.04806e-07
0.000940644
-3.63396e-07
7.04442e-07
0.000940644
-7.14698e-07
7.07836e-07
0.000927257
-1.04299e-06
7.14071e-07
0.000900697
-1.33961e-06
7.21869e-07
0.000861384
7.45144e-07
0.000809944
-1.59141e-06
1.33383e-06
3.83382e-07
0.000840397
-1.58216e-06
1.03686e-06
3.69207e-07
0.000889621
7.09355e-07
3.63288e-07
0.000927258
3.60301e-07
3.59115e-07
0.000952693
-1.08544e-10
3.5677e-07
0.000965514
-3.60109e-07
3.5627e-07
0.000965514
-7.08372e-07
3.5754e-07
0.000952693
-1.03476e-06
3.60486e-07
0.000927257
-1.32874e-06
3.64733e-07
0.000889621
3.76953e-07
0.000840397
-1.57274e-06
1.32468e-06
2.45463e-10
0.000855737
-1.56998e-06
1.03068e-06
-9.26242e-10
0.000903849
7.0509e-07
-1.5283e-09
0.000940644
3.57932e-07
-2.23599e-09
0.000965514
-6.64576e-10
-2.88798e-09
0.000978052
-3.58936e-07
-3.45397e-09
0.000978052
-7.05477e-07
-4.10537e-09
0.000965514
-1.03026e-06
-4.92095e-09
0.000940644
-1.32215e-06
-5.88821e-09
0.000903849
-5.91066e-09
0.000855737
-1.56341e-06
1.32414e-06
-3.82688e-07
0.000855737
-1.5695e-06
1.03019e-06
-3.71e-07
0.000903849
7.04454e-07
-3.66315e-07
0.000940644
3.57317e-07
-3.6348e-07
0.000965514
-1.25723e-09
-3.62443e-07
0.000978052
-3.59704e-07
-3.63128e-07
0.000978052
-7.06513e-07
-3.65651e-07
0.000965514
-1.03157e-06
-3.70085e-07
0.000940644
-1.32393e-06
-3.76293e-07
0.000903849
-3.88815e-07
0.000855737
-1.56563e-06
1.33219e-06
-7.51201e-07
0.000840397
-1.58063e-06
1.03538e-06
-7.27547e-07
0.000889621
7.07567e-07
-7.1915e-07
0.000927258
3.5848e-07
-7.13275e-07
0.000952693
-1.92399e-09
-7.10402e-07
0.000965514
-3.62343e-07
-7.11162e-07
0.000965514
-7.11283e-07
-7.15561e-07
0.000952693
-1.03859e-06
-7.23038e-07
0.000927257
-1.3342e-06
-7.33045e-07
0.000889621
-7.57435e-07
0.000840397
-1.57924e-06
1.34462e-06
-1.08982e-06
0.000809944
-1.60044e-06
1.04399e-06
-1.05911e-06
0.000861385
7.13817e-07
-1.04961e-06
0.000900697
3.61517e-07
-1.04145e-06
0.000927258
-2.61866e-09
-1.03656e-06
0.000940644
-3.6679e-07
-1.03725e-06
0.000940644
-7.19045e-07
-1.04358e-06
0.000927257
-1.04909e-06
-1.05348e-06
0.000900697
-1.34879e-06
-1.06458e-06
0.000861384
-1.0959e-06
0.000809944
-1.60134e-06
1.35462e-06
-1.37759e-06
0.00076483
-1.6278e-06
1.05367e-06
-1.36001e-06
0.000819573
7.22437e-07
-1.35004e-06
0.000861385
3.66339e-07
-1.3379e-06
0.000889621
-3.21015e-09
-1.32989e-06
0.000903849
-3.72839e-07
-1.33036e-06
0.000903849
-7.29118e-07
-1.33944e-06
0.000889621
-1.06045e-06
-1.35302e-06
0.000861384
-1.36067e-06
-1.36442e-06
0.000819573
-1.38384e-06
0.00076483
-1.63084e-06
1.37199e-06
0.000705725
-1.6378e-06
-1.63162e-06
1.08518e-06
0.00076483
-1.63303e-06
7.4723e-07
0.000809944
-1.60521e-06
3.79116e-07
0.000840397
-1.5854e-06
-3.35669e-09
0.000855737
-1.57424e-06
-3.85897e-07
0.000855737
-1.57456e-06
-7.5423e-07
0.000840397
-1.58645e-06
-1.09245e-06
0.000809944
-1.60714e-06
-1.38055e-06
0.00076483
-1.63571e-06
0.000705725
-1.63704e-06
-1.64178e-06
2.25439e-06
2.25198e-06
0.000706583
-2.68403e-06
-2.68063e-06
1.77483e-06
2.23851e-06
0.00076576
-2.69208e-06
1.22298e-06
2.23408e-06
0.000810929
-2.66986e-06
6.23058e-07
2.22601e-06
0.000841419
-2.65083e-06
3.56647e-10
2.21988e-06
0.000856777
-2.64015e-06
-6.22149e-07
2.21982e-06
0.000856777
-2.64008e-06
-1.22144e-06
2.22572e-06
0.000841419
-2.6505e-06
-1.77278e-06
2.23317e-06
0.000810929
-2.66879e-06
-2.25043e-06
2.23601e-06
0.00076576
-2.6902e-06
2.24562e-06
0.000706583
-2.67844e-06
-2.67755e-06
2.24167e-06
1.77318e-06
0.00076576
-2.69547e-06
1.74068e-06
1.73813e-06
0.00082057
1.19236e-06
1.73055e-06
0.000862432
6.06436e-07
1.72587e-06
0.000890704
3.88512e-10
1.72278e-06
0.000904949
-6.05406e-07
1.72267e-06
0.000904949
-1.19055e-06
1.72543e-06
0.000890704
-1.73761e-06
1.72935e-06
0.000862432
-2.23776e-06
1.73539e-06
0.000820569
1.76915e-06
0.00076576
-2.69056e-06
2.2374e-06
1.22129e-06
0.000810929
-2.67335e-06
1.73318e-06
1.18987e-06
0.000862433
1.18306e-06
1.18031e-06
0.000901793
6.00274e-07
1.17606e-06
0.000928386
2.07095e-10
1.17395e-06
0.000941788
-5.99583e-07
1.17356e-06
0.000941788
-1.18162e-06
1.1749e-06
0.000928385
-1.73044e-06
1.1782e-06
0.000901793
-2.23376e-06
1.18616e-06
0.000862432
1.21647e-06
0.000810929
-2.66942e-06
2.22934e-06
6.21255e-07
0.000841419
-2.6544e-06
1.72829e-06
6.03848e-07
0.000890704
1.17871e-06
5.97276e-07
0.000928386
5.97328e-07
5.94307e-07
0.000953852
-3.30677e-10
5.92948e-07
0.000966688
-5.97655e-07
5.92518e-07
0.000966688
-1.17827e-06
5.92895e-07
0.000953851
-1.72666e-06
5.94621e-07
0.000928385
-2.22646e-06
5.99638e-07
0.000890704
6.16459e-07
0.000841419
-2.65195e-06
2.22293e-06
-1.58779e-09
0.000856777
-2.64361e-06
1.72481e-06
-2.40238e-09
0.000904949
1.17637e-06
-3.1492e-09
0.000941788
5.95852e-07
-3.84204e-09
0.000966689
-9.03865e-10
-4.42968e-09
0.000979242
-5.97429e-07
-4.90999e-09
0.000979242
-1.17737e-06
-5.44277e-09
0.000966688
-1.72474e-06
-6.14182e-09
0.000941788
-2.22126e-06
-6.86776e-09
0.000904949
-6.4763e-09
0.000856777
-2.64236e-06
2.22242e-06
-6.24281e-07
0.000856778
-2.6433e-06
1.72426e-06
-6.08646e-07
0.000904949
1.17574e-06
-6.03601e-07
0.000941788
5.95277e-07
-6.01958e-07
0.000966689
-1.42002e-09
-6.01774e-07
0.000979242
-5.98052e-07
-6.02363e-07
0.000979242
-1.17823e-06
-6.03813e-07
0.000966688
-1.72578e-06
-6.06845e-07
0.000941788
-2.22221e-06
-6.13265e-07
0.000904949
-6.2931e-07
0.000856777
-2.6433e-06
2.22786e-06
-1.22377e-06
0.000841419
-2.65344e-06
1.72665e-06
-1.19453e-06
0.000890704
1.17695e-06
-1.18668e-06
0.000928386
5.95634e-07
-1.18374e-06
0.000953852
-1.92802e-09
-1.18277e-06
0.000966689
-5.99528e-07
-1.18344e-06
0.000966688
-1.18073e-06
-1.18573e-06
0.000953852
-1.72963e-06
-1.19005e-06
0.000928386
-2.2292e-06
-1.19931e-06
0.000890704
-1.22908e-06
0.000841419
-2.65473e-06
2.23492e-06
-1.77539e-06
0.00081093
-2.67141e-06
1.73036e-06
-1.74255e-06
0.000862433
1.18031e-06
-1.73679e-06
0.000901793
5.97574e-07
-1.73357e-06
0.000928386
-2.46338e-09
-1.73145e-06
0.000941788
-6.02539e-07
-1.73206e-06
0.000941788
-1.18523e-06
-1.73544e-06
0.000928386
-1.73483e-06
-1.74019e-06
0.000901793
-2.23789e-06
-1.74733e-06
0.000862432
-1.7808e-06
0.000810929
-2.67399e-06
2.23749e-06
-2.25417e-06
0.00076576
-2.6919e-06
1.73634e-06
-2.24374e-06
0.00082057
1.18842e-06
-2.24132e-06
0.000862433
6.02857e-07
-2.23458e-06
0.000890704
-3.01862e-09
-2.22916e-06
0.000904949
-6.08968e-07
-2.22954e-06
0.000904949
-1.19467e-06
-2.23582e-06
0.000890704
-1.74234e-06
-2.24375e-06
0.000862432
-2.24215e-06
-2.24742e-06
0.00082057
-2.2598e-06
0.00076576
-2.69577e-06
2.24759e-06
0.000706583
-2.68487e-06
-2.67831e-06
1.76973e-06
0.00076576
-2.69789e-06
1.21853e-06
0.00081093
-2.67735e-06
6.1929e-07
0.000841419
-2.65965e-06
-3.11845e-09
0.000856777
-2.64973e-06
-6.25675e-07
0.000856777
-2.65013e-06
-1.22532e-06
0.000841419
-2.66095e-06
-1.77686e-06
0.000810929
-2.67969e-06
-2.25549e-06
0.00076576
-2.7014e-06
0.000706583
-2.68429e-06
-2.69029e-06
2.95455e-06
2.94965e-06
0.000707716
-3.52116e-06
-3.51589e-06
2.3214e-06
2.94747e-06
0.000766989
-3.54752e-06
1.59995e-06
2.94638e-06
0.00081223
-3.52833e-06
8.1607e-07
2.94132e-06
0.000842769
-3.51035e-06
2.74754e-09
2.93691e-06
0.000858152
-3.50091e-06
-8.10437e-07
2.93669e-06
0.000858152
-3.50073e-06
-1.59394e-06
2.94054e-06
0.000842769
-3.50962e-06
-2.31585e-06
2.94475e-06
0.00081223
-3.52646e-06
-2.94624e-06
2.94413e-06
0.000766989
-3.54461e-06
2.94209e-06
0.000707715
-3.51123e-06
-3.51217e-06
2.95367e-06
2.31638e-06
0.000766989
-3.55338e-06
2.29234e-06
2.28609e-06
0.000821887
1.56979e-06
2.27998e-06
0.000863817
7.98896e-07
2.27758e-06
0.000892134
2.51333e-09
2.27589e-06
0.000906402
-7.9369e-07
2.27564e-06
0.000906402
-1.56402e-06
2.27674e-06
0.000892134
-2.28578e-06
2.27813e-06
0.000863817
-2.94531e-06
2.28221e-06
0.000821887
2.30992e-06
0.000766989
-3.54386e-06
2.95297e-06
1.59467e-06
0.000812231
-3.53455e-06
2.2866e-06
1.56363e-06
0.000863817
1.56081e-06
1.55426e-06
0.000903242
7.92562e-07
1.55137e-06
0.000929877
2.20852e-09
1.55019e-06
0.000943301
-7.87983e-07
1.54979e-06
0.000943301
-1.55583e-06
1.55017e-06
0.000929877
-2.28101e-06
1.5521e-06
0.000903242
-2.94603e-06
1.55972e-06
0.000863817
1.58887e-06
0.00081223
-3.52714e-06
2.94799e-06
8.10417e-07
0.000842769
-3.51668e-06
2.28421e-06
7.92572e-07
0.000892134
1.55791e-06
7.85818e-07
0.000929877
7.90228e-07
7.83487e-07
0.000955384
1.60819e-09
7.82626e-07
0.000968241
-7.86799e-07
7.8226e-07
0.000968241
-1.55407e-06
7.82272e-07
0.000955384
-2.27996e-06
7.83521e-07
0.000929877
-2.9425e-06
7.88869e-07
0.000892134
8.05748e-07
0.000842769
-3.51083e-06
2.94339e-06
-3.24246e-09
0.000858152
-3.50716e-06
2.28236e-06
-4.08095e-09
0.000906402
1.55658e-06
-4.81383e-09
0.000943301
7.89263e-07
-5.41692e-09
0.000968241
1.09619e-09
-5.87301e-09
0.000980815
-7.86939e-07
-6.22686e-09
0.000980815
-1.55398e-06
-6.64038e-09
0.000968241
-2.27934e-06
-7.17294e-09
0.000943301
-2.93901e-06
-7.61222e-09
0.000906402
-7.32373e-09
0.000858152
-3.50213e-06
2.94297e-06
-8.16764e-07
0.000858152
-3.50689e-06
2.28203e-06
-8.0075e-07
0.000906402
1.55614e-06
-7.95478e-07
0.000943301
7.88856e-07
-7.94273e-07
0.000968242
7.44158e-10
-7.94329e-07
0.000980815
-7.87371e-07
-7.94758e-07
0.000980815
-1.55457e-06
-7.95651e-07
0.000968241
-2.27996e-06
-7.97936e-07
0.000943301
-2.93949e-06
-8.04213e-07
0.000906402
-8.20568e-07
0.000858152
-3.5025e-06
2.94681e-06
-1.60051e-06
0.000842769
-3.51587e-06
2.28322e-06
-1.57174e-06
0.000892134
1.55667e-06
-1.56397e-06
0.000929877
7.88996e-07
-1.56215e-06
0.000955384
4.36844e-10
-1.56186e-06
0.000968241
-7.88195e-07
-1.56236e-06
0.000968241
-1.55585e-06
-1.56363e-06
0.000955384
-2.28191e-06
-1.56651e-06
0.000929877
-2.94419e-06
-1.57527e-06
0.000892134
-1.60433e-06
0.000842769
-3.51218e-06
2.95111e-06
-2.32259e-06
0.000812231
-3.53285e-06
2.28487e-06
-2.29435e-06
0.000863818
1.55886e-06
-2.28989e-06
0.000903242
7.90496e-07
-2.28871e-06
0.000929877
3.31777e-11
-2.28783e-06
0.000943301
-7.90468e-07
-2.28828e-06
0.000943301
-1.55881e-06
-2.29013e-06
0.000929877
-2.28451e-06
-2.29251e-06
0.000903242
-2.94954e-06
-2.29793e-06
0.000863817
-2.32636e-06
0.00081223
-3.53004e-06
2.95052e-06
-2.95398e-06
0.000766989
-3.55031e-06
2.28936e-06
-2.95527e-06
0.000821887
1.56667e-06
-2.95585e-06
0.000863818
7.95848e-07
-2.95178e-06
0.000892134
-5.99105e-10
-2.94794e-06
0.000906402
-7.97095e-07
-2.94821e-06
0.000906402
-1.568e-06
-2.95269e-06
0.000892134
-2.29042e-06
-2.95764e-06
0.000863817
-2.95044e-06
-2.9579e-06
0.000821887
-2.95793e-06
0.000766989
-3.54874e-06
2.94864e-06
0.000707716
-3.52176e-06
-3.51654e-06
2.31774e-06
0.000766989
-3.55479e-06
1.59602e-06
0.000812231
-3.53703e-06
8.12459e-07
0.000842769
-3.5201e-06
-8.21688e-10
0.000858152
-3.51115e-06
-8.14235e-07
0.000858152
-3.51135e-06
-1.59818e-06
0.000842769
-3.52078e-06
-2.32035e-06
0.00081223
-3.53826e-06
-2.95223e-06
0.000766989
-3.55657e-06
0.000707716
-3.51766e-06
-3.52507e-06
3.46549e-06
3.45744e-06
0.00070905
-4.13275e-06
-4.12486e-06
2.72292e-06
3.47066e-06
0.000768436
-4.17861e-06
1.87576e-06
3.46897e-06
0.000813764
-4.15684e-06
9.56962e-07
3.46258e-06
0.00084436
-4.13691e-06
4.56699e-09
3.4574e-06
0.000859772
-4.12697e-06
-9.47694e-07
3.4571e-06
0.000859772
-4.12667e-06
-1.86617e-06
3.46153e-06
0.00084436
-4.13577e-06
-2.71382e-06
3.46684e-06
0.000813763
-4.15414e-06
-3.45551e-06
3.46665e-06
0.000768436
-4.17419e-06
3.44946e-06
0.00070905
-4.12258e-06
-4.11897e-06
3.4804e-06
2.7145e-06
0.000768436
-4.18766e-06
2.7025e-06
2.69256e-06
0.000823439
1.85026e-06
2.68602e-06
0.00086545
9.41833e-07
2.68196e-06
0.00089382
4.11124e-09
2.67911e-06
0.000908115
-9.33475e-07
2.67879e-06
0.000908115
-1.84152e-06
2.6809e-06
0.00089382
-2.69329e-06
2.68385e-06
0.000865449
-3.4709e-06
2.68847e-06
0.000823439
2.70827e-06
0.000768436
-4.1786e-06
3.47951e-06
1.86673e-06
0.000813764
-4.16674e-06
2.69668e-06
1.84018e-06
0.00086545
1.84162e-06
1.8309e-06
0.000904949
9.35811e-07
1.82688e-06
0.000931635
3.72437e-09
1.82478e-06
0.000945084
-9.28276e-07
1.82443e-06
0.000945084
-1.83393e-06
1.82582e-06
0.000931635
-2.68877e-06
1.82896e-06
0.000904949
-3.47169e-06
1.83676e-06
0.000865449
1.86191e-06
0.000813763
-4.15976e-06
3.47354e-06
9.4738e-07
0.00084436
-4.14735e-06
2.69291e-06
9.31527e-07
0.00089382
1.8378e-06
9.24971e-07
0.000931635
9.33152e-07
9.22176e-07
0.000957191
3.18907e-09
9.20912e-07
0.000970073
-9.26648e-07
9.20689e-07
0.000970073
-1.83116e-06
9.21378e-07
0.000957191
-2.6862e-06
9.23356e-07
0.000931635
-3.46673e-06
9.2885e-07
0.00089382
9.43965e-07
0.00084436
-4.14122e-06
3.46851e-06
-5.51022e-09
0.000859772
-4.13772e-06
2.69022e-06
-6.4799e-09
0.000908115
1.83577e-06
-7.25494e-09
0.000945085
9.31914e-07
-7.81745e-09
0.000970073
2.87037e-09
-8.12873e-09
0.00098267
-9.26104e-07
-8.26267e-09
0.00098267
-1.82988e-06
-8.4065e-09
0.000970073
-2.68413e-06
-8.61514e-09
0.000945084
-3.46196e-06
-8.66105e-09
0.000908115
-8.16113e-09
0.000859772
-4.13143e-06
3.4684e-06
-9.58233e-07
0.000859772
-4.13774e-06
2.69015e-06
-9.44449e-07
0.000908115
1.83557e-06
-9.39462e-07
0.000945085
9.31759e-07
-9.37715e-07
0.000970073
2.78068e-09
-9.37103e-07
0.00098267
-9.2624e-07
-9.3728e-07
0.00098267
-1.83009e-06
-9.38367e-07
0.000970073
-2.68427e-06
-9.40785e-07
0.000945084
-3.46181e-06
-9.46448e-07
0.000908115
-9.60528e-07
0.000859772
-4.13112e-06
3.4732e-06
-1.877e-06
0.00084436
-4.14738e-06
2.69263e-06
-1.85289e-06
0.00089382
1.83724e-06
-1.84531e-06
0.000931635
9.3259e-07
-1.84227e-06
0.000957191
2.70244e-09
-1.84083e-06
0.000970073
-9.27275e-07
-1.84108e-06
0.000970073
-1.83197e-06
-1.84303e-06
0.000957191
-2.6869e-06
-1.84669e-06
0.000931635
-3.46669e-06
-1.85495e-06
0.00089382
-1.87925e-06
0.00084436
-4.14066e-06
3.47882e-06
-2.72457e-06
0.000813764
-4.16638e-06
2.6959e-06
-2.70497e-06
0.00086545
1.84061e-06
-2.7002e-06
0.000904949
9.34643e-07
-2.69728e-06
0.000931635
2.41699e-09
-2.69507e-06
0.000945085
-9.2984e-07
-2.69529e-06
0.000945085
-1.83578e-06
-2.69801e-06
0.000931635
-2.69076e-06
-2.70171e-06
0.000904949
-3.4729e-06
-2.70708e-06
0.000865449
-2.72666e-06
0.000813763
-4.16006e-06
3.47861e-06
-3.46637e-06
0.000768436
-4.18624e-06
2.70064e-06
-3.48298e-06
0.000823439
1.84821e-06
-3.48315e-06
0.00086545
9.39704e-07
-3.47764e-06
0.00089382
1.76255e-09
-3.47283e-06
0.000908115
-9.362e-07
-3.47288e-06
0.000908115
-1.84473e-06
-3.47785e-06
0.00089382
-2.69683e-06
-3.48379e-06
0.000865449
-3.47405e-06
-3.48411e-06
0.000823439
-3.46844e-06
0.000768436
-4.18109e-06
3.46133e-06
0.00070905
-4.13472e-06
-4.12992e-06
2.72033e-06
0.000768436
-4.19031e-06
1.87292e-06
0.000813764
-4.1701e-06
9.5414e-07
0.00084436
-4.15118e-06
1.47346e-09
0.000859772
-4.14165e-06
-9.5127e-07
0.000859772
-4.14167e-06
-1.87031e-06
0.00084436
-4.15131e-06
-2.7181e-06
0.000813764
-4.17047e-06
-3.46051e-06
0.000768436
-4.19089e-06
0.00070905
-4.12757e-06
-4.13627e-06
3.86462e-06
3.85504e-06
0.000710543
-4.61098e-06
-4.60161e-06
3.03622e-06
3.88402e-06
0.000770055
-4.67746e-06
2.09011e-06
3.87905e-06
0.000815478
-4.64922e-06
1.06532e-06
3.86769e-06
0.000846139
-4.6244e-06
4.19531e-09
3.85944e-06
0.000861584
-4.61213e-06
-1.05678e-06
3.85944e-06
0.000861584
-4.61212e-06
-2.0812e-06
3.86748e-06
0.000846139
-4.62407e-06
-3.02793e-06
3.87814e-06
0.000815478
-4.64769e-06
-3.85558e-06
3.88151e-06
0.000770055
-4.67423e-06
3.84901e-06
0.000710543
-4.603e-06
-4.59643e-06
3.89566e-06
3.02621e-06
0.000770055
-4.68836e-06
3.02611e-06
3.01431e-06
0.000825175
2.07136e-06
3.006e-06
0.000867275
1.05366e-06
2.99715e-06
0.000895706
3.64653e-09
2.99099e-06
0.000910031
-1.04622e-06
2.99094e-06
0.000910031
-2.06351e-06
2.99683e-06
0.000895706
-3.01799e-06
3.00501e-06
0.000867275
-3.88736e-06
3.01189e-06
0.000825175
3.02203e-06
0.000770055
-4.68084e-06
3.89177e-06
2.07945e-06
0.000815478
-4.6613e-06
3.01882e-06
2.05951e-06
0.000867275
2.06293e-06
2.0502e-06
0.000906859
1.04833e-06
2.04307e-06
0.000933602
3.49327e-09
2.0385e-06
0.00094708
-1.04127e-06
2.03842e-06
0.00094708
-2.05574e-06
2.04278e-06
0.000933602
-3.0116e-06
2.04949e-06
0.000906859
-3.88478e-06
2.05781e-06
0.000867274
2.07657e-06
0.000815478
-4.65501e-06
3.88103e-06
1.05418e-06
0.00084614
-4.63724e-06
3.01049e-06
1.04176e-06
0.000895706
2.05623e-06
1.0357e-06
0.000933602
1.04456e-06
1.03158e-06
0.000959212
3.25136e-09
1.02915e-06
0.000972122
-1.03795e-06
1.02919e-06
0.000972122
-2.04952e-06
1.03157e-06
0.000959212
-3.00388e-06
1.03538e-06
0.000933602
-3.87441e-06
1.04087e-06
0.000895705
1.05255e-06
0.000846139
-4.63095e-06
3.87307e-06
-7.34156e-09
0.000861584
-4.6254e-06
3.00464e-06
-8.34974e-09
0.000910031
2.05187e-06
-9.03536e-09
0.00094708
1.0423e-06
-9.50552e-09
0.000972122
3.24886e-09
-9.6455e-09
0.000984746
-1.03573e-06
-9.51213e-09
0.000984746
-2.04523e-06
-9.30677e-09
0.000972122
-2.99791e-06
-9.13082e-09
0.00094708
-3.86594e-06
-8.84476e-09
0.000910031
-8.36648e-09
0.000861584
-4.61825e-06
3.87326e-06
-1.06868e-06
0.000861584
-4.62567e-06
3.00483e-06
-1.05838e-06
0.000910031
2.05194e-06
-1.05373e-06
0.00094708
1.04242e-06
-1.05049e-06
0.000972122
3.44299e-09
-1.04838e-06
0.000984746
-1.03555e-06
-1.04829e-06
0.000984746
-2.04507e-06
-1.05038e-06
0.000972122
-2.99764e-06
-1.05387e-06
0.00094708
-3.8654e-06
-1.05886e-06
0.000910031
-1.06947e-06
0.000861584
-4.61764e-06
3.88149e-06
-2.09331e-06
0.00084614
-4.63796e-06
3.01093e-06
-2.0758e-06
0.000895706
2.0564e-06
-2.06809e-06
0.000933602
1.04477e-06
-2.0618e-06
0.000959212
3.57235e-09
-2.05758e-06
0.000972122
-1.03768e-06
-2.05757e-06
0.000972122
-2.04931e-06
-2.06185e-06
0.000959212
-3.00345e-06
-2.06842e-06
0.000933602
-3.87323e-06
-2.07653e-06
0.000895705
-2.09416e-06
0.000846139
-4.62945e-06
3.89217e-06
-3.0399e-06
0.000815478
-4.66191e-06
3.01911e-06
-3.03024e-06
0.000867275
2.06301e-06
-3.02362e-06
0.000906859
1.04833e-06
-3.01579e-06
0.000933602
3.40912e-09
-3.00998e-06
0.00094708
-1.04152e-06
-3.00998e-06
0.00094708
-2.05616e-06
-3.01591e-06
0.000933602
-3.01203e-06
-3.02424e-06
0.000906859
-3.88428e-06
-3.03121e-06
0.000867275
-3.04066e-06
0.000815478
-4.65367e-06
3.8952e-06
-3.86731e-06
0.000770055
-4.68812e-06
3.02563e-06
-3.89949e-06
0.000825175
2.07071e-06
-3.89637e-06
0.000867275
1.05302e-06
-3.88583e-06
0.000895706
2.81655e-09
-3.87767e-06
0.000910031
-1.04741e-06
-3.87753e-06
0.000910031
-2.06514e-06
-3.88554e-06
0.000895706
-3.01986e-06
-3.89627e-06
0.000867275
-3.88865e-06
-3.89963e-06
0.000825175
-3.8679e-06
0.000770055
-4.68116e-06
3.86224e-06
0.000710543
-4.61468e-06
-4.60964e-06
3.03529e-06
0.000770055
-4.69227e-06
2.0888e-06
0.000815478
-4.66563e-06
1.06402e-06
0.00084614
-4.64173e-06
2.56222e-09
0.000861584
-4.62959e-06
-1.05895e-06
0.000861584
-4.62942e-06
-2.08399e-06
0.000846139
-4.64131e-06
-3.03096e-06
0.000815478
-4.66513e-06
-3.85909e-06
0.000770055
-4.69165e-06
0.000710543
-4.60562e-06
-4.61453e-06
4.18461e-06
4.17573e-06
0.000712163
-4.99453e-06
-4.98579e-06
3.2875e-06
4.21977e-06
0.000771811
-5.08124e-06
2.26109e-06
4.21012e-06
0.000817339
-5.04538e-06
1.15105e-06
4.19194e-06
0.00084807
-5.01423e-06
2.88121e-09
4.17935e-06
0.00086355
-4.99859e-06
-1.14516e-06
4.1798e-06
0.00086355
-4.99902e-06
-2.25481e-06
4.19303e-06
0.00084807
-5.01524e-06
-3.28176e-06
4.21125e-06
0.000817338
-5.04597e-06
-4.17867e-06
4.21983e-06
0.000771811
-5.08061e-06
4.1728e-06
0.000712163
-4.99042e-06
-4.98275e-06
4.23093e-06
3.27827e-06
0.000771811
-5.0918e-06
3.28805e-06
3.27698e-06
0.000827058
2.25005e-06
3.26617e-06
0.000869255
1.14361e-06
3.25088e-06
0.000897751
2.39821e-09
3.24021e-06
0.00091211
-1.13868e-06
3.24052e-06
0.00091211
-2.24471e-06
3.25164e-06
0.000897751
-3.28242e-06
3.26691e-06
0.000869255
-4.22548e-06
3.27694e-06
0.000827058
3.27692e-06
0.000771811
-5.08733e-06
4.22243e-06
2.25134e-06
0.000817339
-5.05715e-06
3.27838e-06
2.23917e-06
0.000869255
2.24164e-06
2.22974e-06
0.000908931
1.13909e-06
2.21845e-06
0.000935736
2.64069e-09
2.21055e-06
0.000949245
-1.13374e-06
2.21079e-06
0.000949245
-2.23614e-06
2.2191e-06
0.000935735
-3.27279e-06
2.23055e-06
0.00090893
-4.21733e-06
2.23957e-06
0.000869255
2.25082e-06
0.000817338
-5.05261e-06
4.20474e-06
1.14099e-06
0.00084807
-5.02667e-06
3.26364e-06
1.1329e-06
0.000897751
2.23089e-06
1.1275e-06
0.000935736
1.13373e-06
1.1216e-06
0.000961405
2.79772e-09
1.11757e-06
0.000974345
-1.12805e-06
1.11787e-06
0.000974345
-2.22512e-06
1.12239e-06
0.000961405
-3.25788e-06
1.1285e-06
0.000935735
-4.19918e-06
1.1338e-06
0.000897751
1.14123e-06
0.00084807
-5.02125e-06
4.19228e-06
-7.41724e-09
0.000863551
-5.01122e-06
3.25319e-06
-8.21399e-09
0.00091211
2.22323e-06
-8.691e-09
0.000949245
1.12996e-06
-9.02374e-09
0.000974345
3.11445e-09
-9.00849e-09
0.000986998
-1.12368e-06
-8.64597e-09
0.000986998
-2.21686e-06
-8.13668e-09
0.000974345
-3.24668e-06
-7.65372e-09
0.000949245
-4.18558e-06
-7.19786e-09
0.00091211
-6.91831e-09
0.00086355
-5.0045e-06
4.19263e-06
-1.15565e-06
0.000863551
-5.01159e-06
3.2535e-06
-1.14925e-06
0.00091211
2.22345e-06
-1.14485e-06
0.000949245
1.13026e-06
-1.13958e-06
0.000974345
3.52502e-09
-1.13555e-06
0.000986999
-1.12324e-06
-1.13525e-06
0.000986998
-2.21641e-06
-1.13884e-06
0.000974345
-3.24611e-06
-1.144e-06
0.000949245
-4.18478e-06
-1.14843e-06
0.00091211
-1.15514e-06
0.00086355
-5.00374e-06
4.2056e-06
-2.26535e-06
0.00084807
-5.02767e-06
3.26442e-06
-2.25519e-06
0.000897752
2.23152e-06
-2.24698e-06
0.000935736
1.13449e-06
-2.23632e-06
0.000961405
3.78061e-09
-2.22843e-06
0.000974345
-1.12699e-06
-2.22823e-06
0.000974345
-2.224e-06
-2.2358e-06
0.000961405
-3.25651e-06
-2.24646e-06
0.000935735
-4.19711e-06
-2.25481e-06
0.000897751
-2.26506e-06
0.00084807
-5.01919e-06
4.22337e-06
-3.29202e-06
0.000817339
-5.05822e-06
3.27924e-06
-3.29261e-06
0.000869255
2.24246e-06
-3.28317e-06
0.000908931
1.14004e-06
-3.26868e-06
0.000935736
3.68951e-09
-3.25802e-06
0.000949245
-1.13268e-06
-3.25784e-06
0.000949245
-2.23508e-06
-3.26833e-06
0.000935735
-3.27163e-06
-3.2831e-06
0.00090893
-4.21513e-06
-3.29267e-06
0.000869255
-3.29178e-06
0.000817338
-5.04993e-06
4.2312e-06
-4.18848e-06
0.000771811
-5.09219e-06
3.28849e-06
-4.23519e-06
0.000827058
2.25054e-06
-4.2272e-06
0.000869255
1.14436e-06
-4.20955e-06
0.000897751
3.16567e-09
-4.19665e-06
0.00091211
-1.13808e-06
-4.19636e-06
0.00091211
-2.24437e-06
-4.20886e-06
0.000897751
-3.28216e-06
-4.22653e-06
0.000869255
-4.22434e-06
-4.23463e-06
0.000827058
-4.18807e-06
0.000771811
-5.08526e-06
4.18353e-06
0.000712163
-4.99931e-06
-4.99404e-06
3.28783e-06
0.000771811
-5.09623e-06
2.26126e-06
0.000817339
-5.06172e-06
1.15139e-06
0.00084807
-5.03124e-06
2.99661e-09
0.000863551
-5.01533e-06
-1.14545e-06
0.000863551
-5.01505e-06
-2.2556e-06
0.00084807
-5.03052e-06
-3.28271e-06
0.000817339
-5.06075e-06
-4.17982e-06
0.000771811
-5.09493e-06
0.000712163
-4.99014e-06
-4.998e-06
4.4305e-06
4.42371e-06
0.000713881
-5.28892e-06
-5.28259e-06
3.48057e-06
4.48112e-06
0.000773673
-5.39461e-06
2.39247e-06
4.46672e-06
0.000819311
-5.3515e-06
1.21723e-06
4.44135e-06
0.000850117
-5.31384e-06
2.73198e-09
4.42396e-06
0.000865635
-5.29442e-06
-1.21167e-06
4.42452e-06
0.000865635
-5.29498e-06
-2.3866e-06
4.44281e-06
0.000850117
-5.31525e-06
-3.47532e-06
4.46851e-06
0.000819311
-5.35285e-06
-4.42548e-06
4.48213e-06
0.000773673
-5.39498e-06
4.42204e-06
0.00071388
-5.28619e-06
-5.28021e-06
4.48985e-06
3.47338e-06
0.000773673
-5.4028e-06
3.49091e-06
3.48233e-06
0.000829054
2.38883e-06
3.46901e-06
0.000871354
1.21395e-06
3.44699e-06
0.00089992
2.37709e-09
3.43142e-06
0.000914313
-1.20913e-06
3.43182e-06
0.000914313
-2.38377e-06
3.44805e-06
0.000899919
-3.48577e-06
3.47026e-06
0.000871354
-4.4852e-06
3.48304e-06
0.000829054
3.47292e-06
0.000773673
-5.39914e-06
4.47638e-06
2.38486e-06
0.000819311
-5.36072e-06
3.47858e-06
2.38048e-06
0.000871354
2.38024e-06
2.37097e-06
0.000911126
1.21009e-06
2.35532e-06
0.000937997
2.83931e-09
2.34376e-06
0.000951539
-1.2044e-06
2.34406e-06
0.000951539
-2.37456e-06
2.35616e-06
0.000937997
-3.47296e-06
2.37214e-06
0.000911126
-4.47146e-06
2.38138e-06
0.000871353
2.38484e-06
0.000819311
-5.35625e-06
4.45123e-06
1.20943e-06
0.000850117
-5.32341e-06
3.45697e-06
1.2058e-06
0.00089992
2.36511e-06
1.2011e-06
0.000937997
1.2029e-06
1.1933e-06
0.00096373
3.22379e-09
1.18743e-06
0.000976701
-1.19644e-06
1.18777e-06
0.000976701
-2.35875e-06
1.19419e-06