/*--------------------------------*- C++ -*----------------------------------*\
| =========                 |                                                 |
| \\      /  F ield         | OpenFOAM: The Open Source CFD Toolbox           |
|  \\    /   O peration     | Version:  2412                                  |
|   \\  /    A nd           | Website:  www.openfoam.com                      |
|    \\/     M anipulation  |                                                 |
\*---------------------------------------------------------------------------*/
FoamFile
{
    version     2.0;
    format      ascii;
    arch        "LSB;label=32;scalar=64";
    class       volVectorField;
    location    "0.1";
    object      U;
}
// * * * * * * * * * * * * * * * * * * * * * * * * * * * * * * * * * * * * * //

dimensions      [0 1 -1 0 0 0 0];

internalField   nonuniform List<vector> 
15000
(
(0.000605699 0.000602701 15.0006)
(0.000413986 0.000619782 15.0006)
(0.000296773 0.000627853 15.0006)
(0.000180931 0.000628236 15.0006)
(6.05593e-05 0.000626482 15.0006)
(-6.09221e-05 0.000625073 15.0006)
(-0.000181578 0.000623928 15.0006)
(-0.000297958 0.00062025 15.0006)
(-0.000415432 0.000607484 15.0006)
(-0.000609032 0.000582835 15.0006)
(0.000623159 0.000411561 15.0006)
(0.000438499 0.000436025 15.0006)
(0.000311173 0.00045458 15.0006)
(0.000188341 0.000463055 15.0006)
(6.23347e-05 0.000465821 15.0006)
(-6.47132e-05 0.000465004 15.0006)
(-0.000191318 0.000460649 15.0006)
(-0.000315711 0.000450747 15.0006)
(-0.000446178 0.000430981 15.0006)
(-0.000634323 0.000405613 15.0006)
(0.000631893 0.000294971 15.0006)
(0.00045731 0.000309364 15.0006)
(0.000324609 0.000322618 15.0006)
(0.000195473 0.00032951 15.0006)
(6.43723e-05 0.000332137 15.0006)
(-6.73198e-05 0.000331703 15.0006)
(-0.000198667 0.000328271 15.0006)
(-0.000328399 0.000321022 15.0006)
(-0.000462752 0.00030891 15.0006)
(-0.000640417 0.000298964 15.0006)
(0.000632829 0.0001791 15.0006)
(0.000465762 0.000186426 15.0006)
(0.000331292 0.000193175 15.0006)
(0.000199004 0.000196731 15.0006)
(6.5147e-05 0.000198002 15.0006)
(-6.91288e-05 0.00019755 15.0006)
(-0.000203099 0.000195359 15.0006)
(-0.000335163 0.000190998 15.0006)
(-0.000468958 0.000184214 15.0006)
(-0.000637805 0.000179762 15.0006)
(0.000631822 5.89314e-05 15.0006)
(0.000468572 6.07589e-05 15.0006)
(0.000333694 6.23508e-05 15.0006)
(0.000200234 6.30931e-05 15.0006)
(6.52623e-05 6.31882e-05 15.0006)
(-7.00677e-05 6.28238e-05 15.0006)
(-0.000205153 6.20078e-05 15.0006)
(-0.000338202 6.05321e-05 15.0006)
(-0.000471085 5.82396e-05 15.0006)
(-0.000634871 5.76382e-05 15.0006)
(0.000631383 -6.23613e-05 15.0006)
(0.00046786 -6.57814e-05 15.0006)
(0.000332984 -6.89308e-05 15.0006)
(0.000199691 -7.08535e-05 15.0006)
(6.48574e-05 -7.18933e-05 15.0006)
(-7.03044e-05 -7.22151e-05 15.0006)
(-0.000205239 -7.17789e-05 15.0006)
(-0.000338211 -7.048e-05 15.0006)
(-0.000470563 -6.81529e-05 15.0006)
(-0.000633624 -6.44926e-05 15.0006)
(0.000631477 -0.000182718 15.0006)
(0.000463614 -0.000191558 15.0006)
(0.000329138 -0.000199806 15.0006)
(0.000197336 -0.000204606 15.0006)
(6.38901e-05 -0.000206841 15.0006)
(-6.99341e-05 -0.000207132 15.0006)
(-0.00020347 -0.00020546 15.0006)
(-0.000335108 -0.00020129 15.0006)
(-0.000466934 -0.0001938 15.0006)
(-0.00063359 -0.000185264 15.0006)
(0.000629401 -0.000298387 15.0006)
(0.000453594 -0.000314209 15.0006)
(0.000320966 -0.000328815 15.0006)
(0.000192636 -0.000336833 15.0006)
(6.22299e-05 -0.000340316 15.0006)
(-6.87953e-05 -0.000340567 15.0006)
(-0.000199358 -0.000337589 15.0006)
(-0.000327717 -0.000330174 15.0006)
(-0.000457812 -0.000316237 15.0006)
(-0.000631891 -0.000301143 15.0006)
(0.000619004 -0.000413792 15.0006)
(0.000433007 -0.000440223 15.0006)
(0.000306337 -0.000460312 15.0006)
(0.000184694 -0.000469959 15.0006)
(5.95796e-05 -0.000473712 15.0006)
(-6.65911e-05 -0.000473891 15.0006)
(-0.000191901 -0.000470497 15.0006)
(-0.000313815 -0.000461324 15.0006)
(-0.000438455 -0.000441815 15.0006)
(-0.000622469 -0.000416757 15.0006)
(0.000599131 -0.000604658 15.0006)
(0.000406232 -0.000623639 15.0006)
(0.00029096 -0.000633481 15.0006)
(0.000176534 -0.000635271 15.0006)
(5.6909e-05 -0.000634874 15.0006)
(-6.40135e-05 -0.000635023 15.0006)
(-0.000183875 -0.000635734 15.0006)
(-0.000298913 -0.000634385 15.0006)
(-0.000413424 -0.000625065 15.0006)
(-0.000604514 -0.00060745 15.0006)
(0.0015192 0.00151617 15.0073)
(0.00113595 0.00159725 15.0073)
(0.000815053 0.00165457 15.0073)
(0.000493334 0.00168537 15.0073)
(0.00016537 0.00169851 15.0073)
(-0.000164204 0.00169892 15.0073)
(-0.000491592 0.00168642 15.0073)
(-0.000812313 0.00165567 15.0073)
(-0.00112832 0.00159672 15.0073)
(-0.00150918 0.00151191 15.0073)
(0.00159969 0.00113254 15.0073)
(0.0011945 0.00119116 15.0073)
(0.000854479 0.00124727 15.0073)
(0.000515679 0.00128058 15.0073)
(0.000172899 0.00129548 15.0073)
(-0.000171001 0.0012954 15.0073)
(-0.000513468 0.00128016 15.0073)
(-0.000851498 0.00124586 15.0073)
(-0.00118736 0.00118753 15.0073)
(-0.00158737 0.00112549 15.0073)
(0.00165609 0.000812139 15.0073)
(0.00124999 0.000850845 15.0073)
(0.000892726 0.000889289 15.0073)
(0.000536981 0.000913521 15.0073)
(0.000179566 0.000924743 15.0073)
(-0.000178237 0.000924355 15.0073)
(-0.000535513 0.000912218 15.0073)
(-0.000890743 0.000886607 15.0073)
(-0.00124419 0.000846006 15.0073)
(-0.00164438 0.000804595 15.0073)
(0.00168583 0.000491459 15.0073)
(0.00128262 0.000512476 15.0073)
(0.00091668 0.000533537 15.0073)
(0.000550633 0.000547135 15.0073)
(0.000183671 0.000553455 15.0073)
(-0.000183433 0.00055284 15.0073)
(-0.000550455 0.000545199 15.0073)
(-0.00091636 0.000530004 15.0073)
(-0.00127916 0.000506785 15.0073)
(-0.00167669 0.000483109 15.0073)
(0.00169767 0.000164085 15.0073)
(0.00129659 0.000169893 15.0073)
(0.000927328 0.000175873 15.0073)
(0.000556706 0.000179574 15.0073)
(0.000185178 0.000181005 15.0073)
(-0.000186497 0.00018021 15.0073)
(-0.000558182 0.000177126 15.0073)
(-0.000928929 0.000171651 15.0073)
(-0.00129557 0.000163569 15.0073)
(-0.00169129 0.000155597 15.0073)
(0.0016966 -0.000165547 15.0073)
(0.00129542 -0.000174273 15.0073)
(0.000926178 -0.000182492 15.0073)
(0.00055565 -0.000188316 15.0073)
(0.00018425 -0.00019167 15.0073)
(-0.000187328 -0.000192558 15.0073)
(-0.000558969 -0.000191035 15.0073)
(-0.000929809 -0.000187115 15.0073)
(-0.00129676 -0.000180929 15.0073)
(-0.00169282 -0.000173991 15.0073)
(0.00168255 -0.00049382 15.0073)
(0.00127909 -0.000517722 15.0073)
(0.000913281 -0.000540857 15.0073)
(0.000547527 -0.000556431 15.0073)
(0.000180946 -0.000564505 15.0073)
(-0.00018586 -0.000565413 15.0073)
(-0.000552739 -0.000559189 15.0073)
(-0.000918931 -0.000545541 15.0073)
(-0.00128271 -0.000524374 15.0073)
(-0.00168127 -0.000502133 15.0073)
(0.00165038 -0.000816472 15.0073)
(0.00124401 -0.000857814 15.0073)
(0.000887265 -0.000898078 15.0073)
(0.000532097 -0.000923982 15.0073)
(0.000175334 -0.000936614 15.0073)
(-0.000181995 -0.000937435 15.0073)
(-0.00053911 -0.000926455 15.0073)
(-0.000894867 -0.000902311 15.0073)
(-0.00124991 -0.000863913 15.0073)
(-0.00165164 -0.00082437 15.0073)
(0.00159051 -0.00113517 15.0073)
(0.00118552 -0.00119696 15.0073)
(0.000847063 -0.00125472 15.0073)
(0.000509328 -0.00128919 15.0073)
(0.000167512 -0.00130487 15.0073)
(-0.000175685 -0.00130542 15.0073)
(-0.000517847 -0.00129087 15.0073)
(-0.000856363 -0.00125773 15.0073)
(-0.00119375 -0.00120158 15.0073)
(-0.00159452 -0.00114218 15.0073)
(0.00150529 -0.00151559 15.0073)
(0.00112349 -0.00159939 15.0073)
(0.00080669 -0.00165813 15.0073)
(0.000486575 -0.00168937 15.0073)
(0.000159846 -0.00170252 15.0073)
(-0.00016891 -0.00170274 15.0073)
(-0.000495909 -0.00169009 15.0073)
(-0.000816957 -0.00165959 15.0073)
(-0.00113411 -0.00160197 15.0073)
(-0.00151258 -0.00152013 15.0073)
(0.00244265 0.00243709 15.0221)
(0.00185148 0.00259955 15.0221)
(0.00132232 0.00271774 15.0221)
(0.000797359 0.00278779 15.0221)
(0.000266023 0.00282023 15.0221)
(-0.000267263 0.00282056 15.0221)
(-0.000797619 0.00278869 15.0221)
(-0.00132061 0.00271882 15.0221)
(-0.0018446 0.0025995 15.0221)
(-0.00243238 0.00243355 15.0221)
(0.00260522 0.00184675 15.0221)
(0.00196851 0.0019635 15.0221)
(0.0013995 0.00206853 15.0221)
(0.000840459 0.00213541 15.0221)
(0.000280264 0.00216715 15.0221)
(-0.000280496 0.00216722 15.0221)
(-0.000839884 0.00213551 15.0221)
(-0.00139744 0.00206818 15.0221)
(-0.00196306 0.00196165 15.0221)
(-0.00259649 0.00184215 15.0221)
(0.00272309 0.00131957 15.0221)
(0.00207317 0.00139592 15.0221)
(0.00147081 0.00146725 15.0221)
(0.000880669 0.00151571 15.0221)
(0.000293173 0.00153949 15.0221)
(-0.000293615 0.00153922 15.0221)
(-0.000880438 0.0015148 15.0221)
(-0.00146933 0.00146537 15.0221)
(-0.00206858 0.00139258 15.0221)
(-0.00271533 0.00131502 15.0221)
(0.00279247 0.000796436 15.0221)
(0.00213937 0.000838206 15.0221)
(0.00151882 0.000877946 15.0221)
(0.000908637 0.000905949 15.0221)
(0.000301974 0.000919896 15.0221)
(-0.000303579 0.000919296 15.0221)
(-0.000909707 0.000904058 15.0221)
(-0.00151886 0.000874507 15.0221)
(-0.00213631 0.000832866 15.0221)
(-0.00278611 0.000789687 15.0221)
(0.00282402 0.000266165 15.0221)
(0.00217023 0.000278767 15.0221)
(0.00154192 0.000290807 15.0221)
(0.000922291 0.000299326 15.0221)
(0.000305985 0.000303343 15.0221)
(-0.000309239 0.000302555 15.0221)
(-0.00092514 0.00029688 15.0221)
(-0.00154393 0.000286532 15.0221)
(-0.00216907 0.000272411 15.0221)
(-0.00281929 0.000258414 15.0221)
(0.00282328 -0.00026719 15.0221)
(0.00216931 -0.000282313 15.0221)
(0.00154092 -0.000296559 15.0221)
(0.000921343 -0.000306989 15.0221)
(0.000305107 -0.000312774 15.0221)
(-0.000310076 -0.000313632 15.0221)
(-0.000925994 -0.000309625 15.0221)
(-0.00154487 -0.000301079 15.0221)
(-0.00217004 -0.000288861 15.0221)
(-0.00282018 -0.000275132 15.0221)
(0.00279011 -0.000798767 15.0221)
(0.00213651 -0.000843187 15.0221)
(0.00151581 -0.000885061 15.0221)
(0.000905841 -0.000914864 15.0221)
(0.000299411 -0.000930396 15.0221)
(-0.000306003 -0.000931241 15.0221)
(-0.000912152 -0.000917444 15.0221)
(-0.0015215 -0.00088948 15.0221)
(-0.00213902 -0.000849569 15.0221)
(-0.00278866 -0.000806687 15.0221)
(0.00271871 -0.0013242 15.0221)
(0.00206804 -0.0014033 15.0221)
(0.00146578 -0.00147662 15.0221)
(0.000876207 -0.00152661 15.0221)
(0.000289195 -0.00155157 15.0221)
(-0.000297294 -0.00155229 15.0221)
(-0.000884057 -0.00152883 15.0221)
(-0.00147313 -0.00148051 15.0221)
(-0.0020724 -0.00140911 15.0221)
(-0.00271907 -0.00133194 15.0221)
(0.00259788 -0.00185196 15.0221)
(0.00196046 -0.00197208 15.0221)
(0.00139251 -0.00207899 15.0221)
(0.000834652 -0.00214698 15.0221)
(0.000275311 -0.00217929 15.0221)
(-0.00028489 -0.0021797 15.0221)
(-0.000843998 -0.00214832 15.0221)
(-0.00140156 -0.00208161 15.0221)
(-0.00196702 -0.00197645 15.0221)
(-0.00260054 -0.00185913 15.0221)
(0.0024312 -0.00244206 15.0222)
(0.00183999 -0.00260737 15.0221)
(0.00131412 -0.00272727 15.0221)
(0.000791032 -0.00279801 15.0221)
(0.000260875 -0.00283057 15.0221)
(-0.000271706 -0.00283077 15.0221)
(-0.000801709 -0.00279874 15.0221)
(-0.00132483 -0.00272889 15.0221)
(-0.0018497 -0.00261037 15.0221)
(-0.00243758 -0.00244762 15.0221)
(0.00320323 0.00319436 15.0438)
(0.00242115 0.00342865 15.0438)
(0.00172433 0.0035963 15.0438)
(0.00103967 0.00369889 15.0438)
(0.000347683 0.00374778 15.0438)
(-0.000346567 0.00374784 15.0438)
(-0.00103774 0.00369904 15.0438)
(-0.0017208 0.00359645 15.0438)
(-0.00241177 0.00342792 15.0438)
(-0.00318853 0.00319038 15.0438)
(0.00343799 0.00241355 15.0438)
(0.00259798 0.00258965 15.0438)
(0.00183995 0.00273364 15.0438)
(0.00110446 0.0028263 15.0438)
(0.000368876 0.00287098 15.0438)
(-0.000367103 0.00287083 15.0438)
(-0.00110186 0.00282578 15.0438)
(-0.00183589 0.00273249 15.0438)
(-0.00258956 0.0025869 15.0438)
(-0.00342459 0.00240748 15.0438)
(0.00360528 0.00171906 15.0438)
(0.00274169 0.00183359 15.0438)
(0.0019378 0.00193146 15.0438)
(0.0011603 0.00199821 15.0438)
(0.000386826 0.0020313 15.0438)
(-0.000385687 0.0020309 15.0438)
(-0.00115844 0.00199697 15.0438)
(-0.00193477 0.00192916 15.0438)
(-0.0027349 0.00182964 15.0438)
(-0.00359417 0.00171314 15.0438)
(0.00370726 0.00103645 15.0438)
(0.00283384 0.00109995 15.0438)
(0.00200421 0.0011555 15.0438)
(0.00119935 0.0011947 15.0438)
(0.00039925 0.00121442 15.0438)
(-0.000399495 0.00121382 15.0438)
(-0.00119893 0.00119286 15.0438)
(-0.00200276 0.00115227 15.0438)
(-0.00282885 0.00109501 15.0438)
(-0.00369807 0.00102986 15.0438)
(0.0037555 0.000345472 15.0438)
(0.002878 0.000365257 15.0438)
(0.00203693 0.000382702 15.0438)
(0.00121888 0.000395152 15.0438)
(0.000405256 0.000401266 15.0438)
(-0.000407018 0.000400601 15.0438)
(-0.00122 0.000393102 15.0438)
(-0.00203703 0.000379183 15.0438)
(-0.00287447 0.000360124 15.0438)
(-0.00374752 0.000339113 15.0438)
(0.00375493 -0.000348908 15.0438)
(0.00287741 -0.000371074 15.0438)
(0.0020363 -0.000390333 15.0438)
(0.00121824 -0.00040418 15.0438)
(0.000404611 -0.000411592 15.0438)
(-0.000407664 -0.000412237 15.0438)
(-0.00122063 -0.000406171 15.0438)
(-0.00203762 -0.000393752 15.0438)
(-0.00287494 -0.000375978 15.0438)
(-0.00374775 -0.000354867 15.0438)
(0.00370541 -0.00104114 15.0438)
(0.00283189 -0.0011073 15.0438)
(0.00200223 -0.00116472 15.0438)
(0.0011974 -0.00120531 15.0438)
(0.000397326 -0.00122621 15.0438)
(-0.000401407 -0.00122678 15.0438)
(-0.00120081 -0.00120709 15.0438)
(-0.0020045 -0.0011679 15.0438)
(-0.00283032 -0.00111199 15.0438)
(-0.003699 -0.00104702 15.0438)
(0.00360166 -0.00172627 15.0438)
(0.0027379 -0.00184378 15.0438)
(0.00193421 -0.00194353 15.0438)
(0.00115697 -0.00201156 15.0438)
(0.000383687 -0.00204557 15.0438)
(-0.000388728 -0.002046 15.0438)
(-0.00116139 -0.00201297 15.0438)
(-0.00193756 -0.00194627 15.0438)
(-0.00273751 -0.00184817 15.0438)
(-0.00359639 -0.00173233 15.0438)
(0.00343143 -0.00242103 15.0438)
(0.00259139 -0.00260102 15.0439)
(0.00183438 -0.00274681 15.0438)
(0.00109968 -0.00284042 15.0438)
(0.000364643 -0.00288555 15.0438)
(-0.000370992 -0.00288571 15.0438)
(-0.0011055 -0.00284109 15.0438)
(-0.00183936 -0.00274855 15.0438)
(-0.00259305 -0.0026044 15.0438)
(-0.00342821 -0.00242703 15.0438)
(0.00319228 -0.00320099 15.0438)
(0.00241089 -0.00343865 15.0438)
(0.0017173 -0.00360785 15.0438)
(0.001034 -0.00371094 15.0438)
(0.000342906 -0.00375988 15.0438)
(-0.000350796 -0.0037599 15.0438)
(-0.00104159 -0.00371119 15.0438)
(-0.00172456 -0.00360885 15.0438)
(-0.00241637 -0.00344096 15.0438)
(-0.00319333 -0.0032057 15.0438)
(0.00378444 0.00377123 15.0704)
(0.0028337 0.00406082 15.0704)
(0.00201517 0.00426159 15.0704)
(0.00121513 0.00438475 15.0704)
(0.000406899 0.00444392 15.0704)
(-0.00040363 0.00444377 15.0704)
(-0.00121119 0.00438425 15.0704)
(-0.00201001 0.00426063 15.0704)
(-0.00282391 0.00405872 15.0704)
(-0.00377032 0.0037659 15.0704)
(0.00407474 0.00282185 15.0704)
(0.00306603 0.00305323 15.0705)
(0.00216626 0.00322402 15.0705)
(0.00130069 0.00333165 15.0705)
(0.000434864 0.00338339 15.0705)
(-0.000431351 0.00338309 15.0705)
(-0.00129646 0.00333068 15.0705)
(-0.0021609 0.00322215 15.0705)
(-0.00305735 0.00304963 15.0705)
(-0.00406237 0.00281507 15.0704)
(0.0042754 0.00200569 15.0704)
(0.00323676 0.00215561 15.0705)
(0.0022832 0.00227242 15.0705)
(0.0013685 0.00234963 15.0705)
(0.000456858 0.00238756 15.0705)
(-0.000454203 0.00238718 15.0705)
(-0.00136523 0.00234844 15.0705)
(-0.0022791 0.00227021 15.0705)
(-0.00322993 0.00215191 15.0705)
(-0.00426558 0.00200045 15.0704)
(0.0043982 0.00120758 15.0704)
(0.00334411 0.00129192 15.0705)
(0.00236023 0.00135943 15.0705)
(0.00141431 0.00140533 15.0705)
(0.000471691 0.00142817 15.0705)
(-0.000470171 0.00142781 15.0705)
(-0.00141223 0.00140415 15.0705)
(-0.00235739 0.00135729 15.0705)
(-0.00333858 0.0012886 15.0705)
(-0.00438958 0.00120331 15.0704)
(0.00445702 0.000400312 15.0704)
(0.00339563 0.00042707 15.0705)
(0.00239802 0.000448686 15.0705)
(0.00143708 0.000463571 15.0705)
(0.000479025 0.000470975 15.0705)
(-0.00047834 0.000470683 15.0705)
(-0.00143584 0.000462604 15.0705)
(-0.00239594 0.000446897 15.0705)
(-0.00339056 0.000424367 15.0705)
(-0.00444839 0.000397089 15.0704)
(0.00445666 -0.000410114 15.0704)
(0.00339527 -0.000439165 15.0705)
(0.00239767 -0.000462455 15.0705)
(0.00143678 -0.000478379 15.0705)
(0.000478791 -0.000486469 15.0705)
(-0.000478522 -0.000486698 15.0705)
(-0.00143595 -0.000479168 15.0705)
(-0.00239587 -0.000463968 15.0705)
(-0.00339015 -0.00044148 15.0705)
(-0.00444757 -0.000412867 15.0704)
(0.00439693 -0.00121808 15.0704)
(0.00334279 -0.00130501 15.0705)
(0.00235903 -0.00137434 15.0705)
(0.0014133 -0.00142134 15.0705)
(0.00047087 -0.00144489 15.0705)
(-0.000470843 -0.00144509 15.0705)
(-0.00141269 -0.00142203 15.0705)
(-0.00235735 -0.00137579 15.0705)
(-0.00333763 -0.0013074 15.0705)
(-0.00438756 -0.00122114 15.0704)
(0.00427262 -0.00201776 15.0704)
(0.00323383 -0.00217072 15.0705)
(0.00228066 -0.00228951 15.0705)
(0.00136645 -0.00236786 15.0705)
(0.000455189 -0.00240644 15.0705)
(-0.00045561 -0.00240657 15.0705)
(-0.00136633 -0.00236839 15.0705)
(-0.0022795 -0.00229086 15.0705)
(-0.00322924 -0.0021733 15.0705)
(-0.00426365 -0.00202158 15.0704)
(0.00406917 -0.00283383 15.0704)
(0.00306036 -0.0030693 15.0705)
(0.00216178 -0.0032421 15.0705)
(0.00129723 -0.00335064 15.0705)
(0.000432104 -0.00340273 15.0705)
(-0.000433661 -0.00340266 15.0705)
(-0.00129834 -0.00335064 15.0705)
(-0.00216206 -0.00324278 15.0705)
(-0.00305758 -0.00307135 15.0705)
(-0.0040619 -0.00283823 15.0704)
(0.00377457 -0.00378252 15.0704)
(0.00282435 -0.0040757 15.0704)
(0.00200914 -0.00427819 15.0704)
(0.00121067 -0.00440187 15.0704)
(0.000403423 -0.00446106 15.0704)
(-0.000406523 -0.00446094 15.0704)
(-0.00121358 -0.0044017 15.0704)
(-0.0020118 -0.00427854 15.0704)
(-0.00282562 -0.00407725 15.0704)
(-0.00377176 -0.00378638 15.0704)
(0.00425975 0.0042441 15.1007)
(0.00315237 0.00457631 15.1007)
(0.00223882 0.00479885 15.1007)
(0.00134956 0.00493347 15.1007)
(0.000450798 0.00499791 15.1007)
(-0.00045031 0.00499798 15.1007)
(-0.00134841 0.00493355 15.1007)
(-0.00223664 0.00479866 15.1007)
(-0.00314608 0.00457504 15.1007)
(-0.00424971 0.00423974 15.1007)
(0.00459289 0.00313846 15.1007)
(0.00343562 0.0034205 15.1008)
(0.00242281 0.00361024 15.1008)
(0.00145496 0.00372523 15.1008)
(0.00048546 0.00377965 15.1008)
(-0.000484639 0.00377957 15.1008)
(-0.00145339 0.00372488 15.1008)
(-0.0024202 0.00360931 15.1008)
(-0.00342996 0.00341819 15.1008)
(-0.004584 0.00313339 15.1007)
(0.00481547 0.00222741 15.1007)
(0.00362549 0.00241007 15.1008)
(0.00255407 0.00254098 15.1008)
(0.00153243 0.00262318 15.1008)
(0.000511073 0.00266263 15.1008)
(-0.000510515 0.00266259 15.1008)
(-0.00153124 0.00262294 15.1008)
(-0.00255214 0.0025403 15.1008)
(-0.00362111 0.00240851 15.1008)
(-0.00480838 0.00222483 15.1007)
(0.00494983 0.00134002 15.1007)
(0.00374033 0.00144417 15.1008)
(0.00263625 0.00152115 15.1008)
(0.00158191 0.00157052 15.1008)
(0.000527532 0.00159448 15.1008)
(-0.000527206 0.00159458 15.1008)
(-0.00158105 0.0015707 15.1008)
(-0.00263476 0.00152116 15.1008)
(-0.00373641 0.00144378 15.1008)
(-0.00494289 0.00133928 15.1007)
(0.00501393 0.000442361 15.1007)
(0.00379458 0.000475855 15.1008)
(0.00267563 0.000500924 15.1008)
(0.00160587 0.000517205 15.1008)
(0.000535661 0.000525258 15.1008)
(-0.000535059 0.000525503 15.1008)
(-0.00160481 0.000517786 15.1008)
(-0.00267393 0.000501556 15.1008)
(-0.00379016 0.000476353 15.1008)
(-0.00500598 0.000442865 15.1007)
(0.00501369 -0.000458215 15.1007)
(0.00379436 -0.000493755 15.1008)
(0.00267553 -0.000520215 15.1008)
(0.00160594 -0.000537138 15.1008)
(0.00053592 -0.000545155 15.1008)
(-0.00053466 -0.000544872 15.1008)
(-0.0016043 -0.000536458 15.1008)
(-0.00267321 -0.000519455 15.1008)
(-0.00378905 -0.000493115 15.1008)
(-0.00500447 -0.000457554 15.1007)
(0.00494891 -0.00135609 15.1007)
(0.00373945 -0.00146252 15.1008)
(0.00263575 -0.00154104 15.1008)
(0.00158194 -0.00159116 15.1008)
(0.000528095 -0.00161521 15.1008)
(-0.00052625 -0.00161498 15.1008)
(-0.00157977 -0.00159064 15.1008)
(-0.0026329 -0.0015406 15.1008)
(-0.00373349 -0.00146245 15.1008)
(-0.00493882 -0.00135624 15.1007)
(0.00481328 -0.00224435 15.1007)
(0.00362327 -0.00242968 15.1008)
(0.00255264 -0.00256232 15.1008)
(0.00153196 -0.00264539 15.1008)
(0.000511454 -0.00268506 15.1008)
(-0.000509546 -0.00268487 15.1008)
(-0.00152982 -0.00264502 15.1008)
(-0.00254992 -0.00256227 15.1008)
(-0.0036175 -0.00243036 15.1008)
(-0.0048032 -0.00224576 15.1007)
(0.00458814 -0.0031547 15.1007)
(0.00343098 -0.00344044 15.1008)
(0.00241985 -0.00363201 15.1008)
(0.00145351 -0.00374777 15.1008)
(0.00048519 -0.00380226 15.1008)
(-0.000484146 -0.00380199 15.1008)
(-0.00145236 -0.00374718 15.1008)
(-0.00241836 -0.00363174 15.1008)
(-0.00342683 -0.00344112 15.1008)
(-0.00457955 -0.00315711 15.1007)
(0.00425103 -0.00425934 15.1007)
(0.00314451 -0.00459488 15.1007)
(0.00223468 -0.00481905 15.1007)
(0.00134737 -0.00495408 15.1007)
(0.000449995 -0.00501832 15.1007)
(-0.000450262 -0.00501806 15.1007)
(-0.00134778 -0.00495349 15.1007)
(-0.00223531 -0.00481871 15.1007)
(-0.00314416 -0.00459542 15.1007)
(-0.00424671 -0.00426163 15.1007)
(0.00465145 0.00463684 15.134)
(0.0034059 0.00500359 15.134)
(0.00241627 0.00524141 15.134)
(0.00145602 0.00538228 15.134)
(0.000485057 0.00544906 15.134)
(-0.000488405 0.00544951 15.134)
(-0.00145888 0.00538348 15.134)
(-0.00241841 0.00524298 15.134)
(-0.00340464 0.00500452 15.134)
(-0.0046471 0.00463502 15.1339)
(0.00501939 0.00339361 15.134)
(0.00373481 0.003721 15.1341)
(0.00263022 0.0039246 15.1341)
(0.00157987 0.00404251 15.1341)
(0.000526044 0.00409699 15.1341)
(-0.000528784 0.00409725 15.1341)
(-0.00158198 0.00404319 15.1341)
(-0.00263144 0.00392536 15.1341)
(-0.00373335 0.003721 15.1341)
(-0.00501511 0.00339146 15.134)
(0.00525723 0.00240643 15.134)
(0.00393868 0.00261891 15.1341)
(0.00277258 0.00276069 15.1342)
(0.00166533 0.00284464 15.1342)
(0.000554838 0.00288359 15.1342)
(-0.000556964 0.00288391 15.1342)
(-0.00166688 0.00284548 15.1342)
(-0.00277344 0.00276181 15.1342)
(-0.00393735 0.00261992 15.1341)
(-0.00525337 0.00240703 15.134)
(0.00539769 0.0014477 15.134)
(0.00405643 0.00157033 15.1341)
(0.00285663 0.00165507 15.1342)
(0.00171655 0.00170599 15.1342)
(0.00057232 0.00172974 15.1342)
(-0.000573679 0.00173025 15.1342)
(-0.00171745 0.00170737 15.1342)
(-0.00285697 0.00165705 15.1342)
(-0.00405455 0.00157262 15.1341)
(-0.00539285 0.00145016 15.134)
(0.00546392 0.000477715 15.134)
(0.00411061 0.00051765 15.1341)
(0.00289548 0.00054568 15.1342)
(0.00174037 0.000562701 15.1342)
(0.000580739 0.000570886 15.1342)
(-0.000580869 0.000571546 15.1342)
(-0.00174018 0.000564497 15.1342)
(-0.00289482 0.000548232 15.1342)
(-0.0041075 0.00052065 15.1341)
(-0.0054574 0.000481055 15.134)
(0.00546375 -0.000495046 15.134)
(0.00411047 -0.000536448 15.1341)
(0.00289552 -0.00056544 15.1342)
(0.00174068 -0.000582749 15.1342)
(0.000581343 -0.000590366 15.1342)
(-0.000580051 -0.000589701 15.1342)
(-0.00173923 -0.000580963 15.1342)
(-0.0028937 -0.000562968 15.1342)
(-0.00410602 -0.000533624 15.1341)
(-0.00545561 -0.000491961 15.134)
(0.005397 -0.00146498 15.134)
(0.0040558 -0.00158924 15.1341)
(0.00285657 -0.00167505 15.1342)
(0.00171731 -0.00172635 15.1342)
(0.000573903 -0.0017497 15.1342)
(-0.000571492 -0.00174914 15.1342)
(-0.00171488 -0.00172487 15.1342)
(-0.0028539 -0.00167314 15.1342)
(-0.00405046 -0.00158726 15.1341)
(-0.00538778 -0.00146294 15.134)
(0.00525549 -0.00242416 15.134)
(0.00393701 -0.00263859 15.1341)
(0.00277202 -0.0027816 15.1342)
(0.00166612 -0.00286605 15.1342)
(0.000556882 -0.00290476 15.1342)
(-0.000554047 -0.00290431 15.1342)
(-0.00166342 -0.0028649 15.1342)
(-0.00276928 -0.00278032 15.1342)
(-0.00393173 -0.00263759 15.1341)
(-0.00524614 -0.0024235 15.134)
(0.00501547 -0.00341048 15.134)
(0.00373122 -0.00374078 15.1341)
(0.00262875 -0.00394573 15.1341)
(0.00158031 -0.00406405 15.1341)
(0.000528035 -0.0041182 15.1341)
(-0.000525766 -0.00411773 15.1341)
(-0.00157836 -0.00406289 15.1341)
(-0.00262706 -0.00394452 15.1341)
(-0.00372747 -0.00374007 15.1341)
(-0.00500751 -0.00341096 15.134)
(0.00464424 -0.00465288 15.134)
(0.0033999 -0.00502227 15.134)
(0.00241428 -0.00526132 15.134)
(0.00145623 -0.00540224 15.134)
(0.000486904 -0.00546841 15.134)
(-0.000485547 -0.00546801 15.134)
(-0.00145544 -0.00540122 15.134)
(-0.00241438 -0.00526026 15.134)
(-0.00339973 -0.00502174 15.134)
(-0.00464045 -0.00465358 15.1339)
(0.00495837 0.00494777 15.1696)
(0.0035989 0.00534172 15.1697)
(0.00255168 0.00559016 15.1697)
(0.00153839 0.00573391 15.1697)
(0.000513181 0.00580113 15.1697)
(-0.000514897 0.0058017 15.1697)
(-0.0015402 0.00573545 15.1697)
(-0.00255376 0.00559223 15.1697)
(-0.00359901 0.0053433 15.1697)
(-0.00495625 0.00494668 15.1696)
(0.00535351 0.0035905 15.1697)
(0.00396614 0.00395624 15.1698)
(0.00279102 0.00416967 15.1698)
(0.00167801 0.0042877 15.1698)
(0.00055946 0.00434062 15.1699)
(-0.000560766 0.00434099 15.1699)
(-0.00167924 0.00428868 15.1698)
(-0.00279224 0.00417092 15.1698)
(-0.0039658 0.00395693 15.1698)
(-0.00535089 0.00358915 15.1697)
(0.00560186 0.00254493 15.1697)
(0.00417989 0.002783 15.1698)
(0.00294159 0.0029329 15.1699)
(0.00176962 0.00301657 15.1699)
(0.000590634 0.00305374 15.1699)
(-0.000591026 0.0030541 15.1699)
(-0.00176992 0.00301756 15.1699)
(-0.00294191 0.00293431 15.1699)
(-0.00417898 0.00278446 15.1698)
(-0.0055988 0.00254601 15.1697)
(0.00574502 0.0015323 15.1697)
(0.00429772 0.00167102 15.1698)
(0.00302544 0.00176187 15.1699)
(0.00182121 0.00181302 15.17)
(0.00060845 0.00183564 15.17)
(-0.000607742 0.00183616 15.17)
(-0.00182049 0.00181445 15.17)
(-0.00302486 0.00176395 15.1699)
(-0.00429584 0.00167344 15.1698)
(-0.00574064 0.0015348 15.1697)
(0.00581149 0.000507521 15.1697)
(0.00435022 0.000553115 15.1699)
(0.00306251 0.0005835 15.1699)
(0.00184395 0.000600687 15.17)
(0.000616562 0.000608459 15.17)
(-0.0006145 0.000609097 15.17)
(-0.00184201 0.000602428 15.17)
(-0.00306084 0.000585974 15.1699)
(-0.00434708 0.000555938 15.1699)
(-0.00580556 0.000510457 15.1697)
(0.00581121 -0.00052004 15.1697)
(0.00434995 -0.000566516 15.1699)
(0.00306242 -0.000597617 15.1699)
(0.00184416 -0.000615136 15.17)
(0.000617091 -0.000622461 15.17)
(-0.000613727 -0.000621821 15.17)
(-0.0018411 -0.00061342 15.17)
(-0.0030598 -0.000595275 15.1699)
(-0.00434574 -0.000563955 15.1699)
(-0.00580401 -0.000517475 15.1697)
(0.00574405 -0.00154477 15.1697)
(0.0042968 -0.00168447 15.1698)
(0.00302511 -0.00177606 15.1699)
(0.00182173 -0.00182758 15.17)
(0.000609869 -0.00184986 15.17)
(-0.000605638 -0.0018493 15.17)
(-0.00181797 -0.00182609 15.17)
(-0.00302194 -0.00177415 15.1699)
(-0.00429201 -0.00168251 15.1698)
(-0.00573611 -0.00154293 15.1697)
(0.0055998 -0.00255783 15.1697)
(0.00417796 -0.00279709 15.1698)
(0.00294081 -0.00294779 15.1699)
(0.00177022 -0.00303185 15.1699)
(0.000592553 -0.00306876 15.1699)
(-0.000588136 -0.00306828 15.1699)
(-0.00176644 -0.00303059 15.1699)
(-0.00293783 -0.00294632 15.1699)
(-0.00417348 -0.00279576 15.1698)
(-0.00559195 -0.00255679 15.1697)
(0.00534955 -0.00360266 15.1697)
(0.00396267 -0.00397038 15.1698)
(0.00278967 -0.00418468 15.1698)
(0.00167848 -0.0043029 15.1698)
(0.000561466 -0.00435536 15.1699)
(-0.000557689 -0.00435486 15.1699)
(-0.00167553 -0.0043016 15.1698)
(-0.00278784 -0.00418318 15.1698)
(-0.00395981 -0.00396913 15.1698)
(-0.00534315 -0.00360225 15.1697)
(0.00495172 -0.00495917 15.1696)
(0.00359364 -0.00535493 15.1697)
(0.00255021 -0.00560414 15.1697)
(0.00153889 -0.00574768 15.1697)
(0.000515147 -0.00581413 15.1697)
(-0.000512002 -0.00581369 15.1697)
(-0.00153678 -0.00574654 15.1697)
(-0.00254986 -0.00560278 15.1697)
(-0.0035941 -0.00535389 15.1697)
(-0.0049493 -0.00495896 15.1696)
(0.00519108 0.00518575 15.207)
(0.00374136 0.00559988 15.2071)
(0.00265281 0.00585505 15.2071)
(0.00160161 0.00599916 15.2072)
(0.000537159 0.00606544 15.2072)
(-0.000530714 0.00606576 15.2072)
(-0.00159616 0.00599994 15.2072)
(-0.00264917 0.00585587 15.2071)
(-0.00373793 0.00559981 15.2071)
(-0.00518684 0.00518275 15.207)
(0.00560593 0.00373705 15.2071)
(0.00413864 0.00413344 15.2072)
(0.00291198 0.00435331 15.2073)
(0.00175356 0.0044696 15.2073)
(0.000587384 0.00451998 15.2073)
(-0.000581339 0.00452013 15.2073)
(-0.0017484 0.00446991 15.2073)
(-0.0029084 0.0043534 15.2073)
(-0.00413549 0.00413252 15.2072)
(-0.00560167 0.00373377 15.2071)
(0.00586093 0.00264872 15.2071)
(0.00435873 0.00290732 15.2073)
(0.003068 0.00306285 15.2074)
(0.00184937 0.0031449 15.2074)
(0.000619979 0.00317955 15.2074)
(-0.0006136 0.00317957 15.2074)
(-0.0018438 0.00314492 15.2074)
(-0.0030639 0.00306268 15.2074)
(-0.0043552 0.00290663 15.2073)
(-0.00585634 0.00264715 15.2071)
(0.00600449 0.00159716 15.2072)
(0.00447485 0.00174888 15.2073)
(0.00315028 0.00184415 15.2074)
(0.00190026 0.00189459 15.2075)
(0.000637468 0.00191547 15.2075)
(-0.000630538 0.00191555 15.2075)
(-0.00189415 0.00189476 15.2075)
(-0.00314568 0.00184423 15.2074)
(-0.00447076 0.00174855 15.2073)
(-0.00599913 0.00159627 15.2072)
(0.00607 0.000532599 15.2072)
(0.00452477 0.000582735 15.2073)
(0.00318483 0.000614752 15.2074)
(0.00192129 0.000631599 15.2075)
(0.000644737 0.000638498 15.2075)
(-0.000637267 0.000638641 15.2075)
(-0.00191471 0.000631903 15.2075)
(-0.00317985 0.000614941 15.2074)
(-0.00452018 0.000582444 15.2073)
(-0.00606405 0.000531709 15.2072)
(0.00606935 -0.00053486 15.2072)
(0.00452412 -0.000585544 15.2073)
(0.00318431 -0.000618467 15.2074)
(0.00192101 -0.000636237 15.2075)
(0.000644737 -0.000643553 15.2075)
(-0.000637026 -0.000643396 15.2075)
(-0.0019143 -0.000635923 15.2075)
(-0.00317931 -0.000618356 15.2074)
(-0.00451939 -0.000586012 15.2073)
(-0.00606318 -0.000536022 15.2072)
(0.0060025 -0.00159955 15.2072)
(0.00447286 -0.00175187 15.2073)
(0.00314874 -0.00184802 15.2074)
(0.00189941 -0.00189935 15.2075)
(0.00063739 -0.00192063 15.2075)
(-0.000629942 -0.00192047 15.2075)
(-0.00189307 -0.00189903 15.2075)
(-0.00314418 -0.00184797 15.2074)
(-0.00446848 -0.00175243 15.2073)
(-0.00599649 -0.00160083 15.2072)
(0.00585743 -0.00265181 15.2071)