/*--------------------------------*- C++ -*----------------------------------*\
| =========                 |                                                 |
| \\      /  F ield         | OpenFOAM: The Open Source CFD Toolbox           |
|  \\    /   O peration     | Version:  2412                                  |
|   \\  /    A nd           | Website:  www.openfoam.com                      |
|    \\/     M anipulation  |                                                 |
\*---------------------------------------------------------------------------*/
FoamFile
{
    version     2.0;
    format      ascii;
    arch        "LSB;label=32;scalar=64";
    class       volVectorField;
    location    "7.7";
    object      U;
}
// * * * * * * * * * * * * * * * * * * * * * * * * * * * * * * * * * * * * * //

dimensions      [0 1 -1 0 0 0 0];

internalField   nonuniform List<vector> 
15000
(
(0.00121227 0.00121227 0.0103956)
(0.000896829 0.00113538 0.0103476)
(0.000611923 0.00110937 0.0103071)
(0.000359559 0.00108351 0.0102805)
(0.000118148 0.00107159 0.010268)
(-0.000118148 0.00107159 0.010268)
(-0.000359559 0.00108351 0.0102805)
(-0.000611923 0.00110937 0.0103071)
(-0.000896829 0.00113538 0.0103476)
(-0.00121227 0.00121227 0.0103956)
(0.00113538 0.000896829 0.0103476)
(0.000846255 0.000846255 0.0102849)
(0.000579894 0.000809651 0.0102438)
(0.000338481 0.000783528 0.0102212)
(0.000111098 0.000770827 0.0102116)
(-0.000111098 0.000770827 0.0102116)
(-0.000338481 0.000783528 0.0102212)
(-0.000579894 0.000809651 0.0102438)
(-0.000846255 0.000846255 0.0102849)
(-0.00113538 0.000896829 0.0103476)
(0.00110937 0.000611923 0.0103071)
(0.000809651 0.000579894 0.0102438)
(0.000550639 0.000550639 0.0102091)
(0.000319549 0.000529307 0.0101919)
(0.000104649 0.000518546 0.0101847)
(-0.000104649 0.000518546 0.0101847)
(-0.000319549 0.000529307 0.0101919)
(-0.000550639 0.000550639 0.0102091)
(-0.000809651 0.000579894 0.0102438)
(-0.00110937 0.000611923 0.0103071)
(0.00108351 0.000359559 0.0102805)
(0.000783528 0.000338481 0.0102212)
(0.000529307 0.000319549 0.0101919)
(0.000305707 0.000305707 0.0101776)
(9.99049e-05 0.00029864 0.0101715)
(-9.99049e-05 0.00029864 0.0101715)
(-0.000305707 0.000305707 0.0101776)
(-0.000529307 0.000319549 0.0101919)
(-0.000783528 0.000338481 0.0102212)
(-0.00108351 0.000359559 0.0102805)
(0.00107159 0.000118148 0.010268)
(0.000770827 0.000111098 0.0102116)
(0.000518546 0.000104649 0.0101847)
(0.00029864 9.99049e-05 0.0101715)
(9.74719e-05 9.74719e-05 0.0101656)
(-9.74719e-05 9.74719e-05 0.0101656)
(-0.00029864 9.99049e-05 0.0101715)
(-0.000518546 0.000104649 0.0101847)
(-0.000770827 0.000111098 0.0102116)
(-0.00107159 0.000118148 0.010268)
(0.00107159 -0.000118148 0.010268)
(0.000770827 -0.000111098 0.0102116)
(0.000518546 -0.000104649 0.0101847)
(0.00029864 -9.99049e-05 0.0101715)
(9.74719e-05 -9.74719e-05 0.0101656)
(-9.74719e-05 -9.74719e-05 0.0101656)
(-0.00029864 -9.99049e-05 0.0101715)
(-0.000518546 -0.000104649 0.0101847)
(-0.000770827 -0.000111098 0.0102116)
(-0.00107159 -0.000118148 0.010268)
(0.00108351 -0.000359559 0.0102805)
(0.000783528 -0.000338481 0.0102212)
(0.000529307 -0.000319549 0.0101919)
(0.000305707 -0.000305707 0.0101776)
(9.99049e-05 -0.00029864 0.0101715)
(-9.99049e-05 -0.00029864 0.0101715)
(-0.000305707 -0.000305707 0.0101776)
(-0.000529307 -0.000319549 0.0101919)
(-0.000783528 -0.000338481 0.0102212)
(-0.00108351 -0.000359559 0.0102805)
(0.00110937 -0.000611923 0.0103071)
(0.000809651 -0.000579894 0.0102438)
(0.000550639 -0.000550639 0.0102091)
(0.000319549 -0.000529307 0.0101919)
(0.000104649 -0.000518546 0.0101847)
(-0.000104649 -0.000518546 0.0101847)
(-0.000319549 -0.000529307 0.0101919)
(-0.000550639 -0.000550639 0.0102091)
(-0.000809651 -0.000579894 0.0102438)
(-0.00110937 -0.000611923 0.0103071)
(0.00113538 -0.000896829 0.0103476)
(0.000846255 -0.000846255 0.0102849)
(0.000579894 -0.000809651 0.0102438)
(0.000338481 -0.000783528 0.0102212)
(0.000111098 -0.000770827 0.0102116)
(-0.000111098 -0.000770827 0.0102116)
(-0.000338481 -0.000783528 0.0102212)
(-0.000579894 -0.000809651 0.0102438)
(-0.000846255 -0.000846255 0.0102849)
(-0.00113538 -0.000896829 0.0103476)
(0.00121227 -0.00121227 0.0103956)
(0.000896829 -0.00113538 0.0103476)
(0.000611923 -0.00110937 0.0103071)
(0.000359559 -0.00108351 0.0102805)
(0.000118148 -0.00107159 0.010268)
(-0.000118148 -0.00107159 0.010268)
(-0.000359559 -0.00108351 0.0102805)
(-0.000611923 -0.00110937 0.0103071)
(-0.000896829 -0.00113538 0.0103476)
(-0.00121227 -0.00121227 0.0103956)
(0.000816613 0.000816613 0.0126725)
(0.000647813 0.000865645 0.0126496)
(0.000462244 0.000894594 0.0125616)
(0.000276778 0.000906049 0.0124747)
(9.16883e-05 0.000911093 0.012425)
(-9.16883e-05 0.000911093 0.012425)
(-0.000276778 0.000906049 0.0124747)
(-0.000462244 0.000894594 0.0125616)
(-0.000647813 0.000865645 0.0126496)
(-0.000816613 0.000816613 0.0126725)
(0.000865645 0.000647813 0.0126496)
(0.000673439 0.000673439 0.0124943)
(0.000472823 0.000680894 0.0123136)
(0.000279073 0.000679592 0.0121753)
(9.20135e-05 0.000678015 0.0121032)
(-9.20135e-05 0.000678015 0.0121032)
(-0.000279073 0.000679592 0.0121753)
(-0.000472823 0.000680894 0.0123136)
(-0.000673439 0.000673439 0.0124943)
(-0.000865645 0.000647813 0.0126496)
(0.000894594 0.000462244 0.0125616)
(0.000680894 0.000472823 0.0123136)
(0.000471287 0.000471287 0.0120831)
(0.000275497 0.000466215 0.0119216)
(9.04995e-05 0.000462983 0.0118403)
(-9.04995e-05 0.000462983 0.0118403)
(-0.000275497 0.000466215 0.0119216)
(-0.000471287 0.000471287 0.0120831)
(-0.000680894 0.000472823 0.0123136)
(-0.000894594 0.000462244 0.0125616)
(0.000906049 0.000276778 0.0124747)
(0.000679592 0.000279073 0.0121753)
(0.000466215 0.000275497 0.0119216)
(0.000271106 0.000271106 0.0117508)
(8.88737e-05 0.000268557 0.0116663)
(-8.88737e-05 0.000268557 0.0116663)
(-0.000271106 0.000271106 0.0117508)
(-0.000466215 0.000275497 0.0119216)
(-0.000679592 0.000279073 0.0121753)
(-0.000906049 0.000276778 0.0124747)
(0.000911093 9.16883e-05 0.012425)
(0.000678015 9.20135e-05 0.0121032)
(0.000462983 9.04995e-05 0.0118403)
(0.000268557 8.88737e-05 0.0116663)
(8.79535e-05 8.79535e-05 0.011581)
(-8.79535e-05 8.79535e-05 0.011581)
(-0.000268557 8.88737e-05 0.0116663)
(-0.000462983 9.04995e-05 0.0118403)
(-0.000678015 9.20135e-05 0.0121032)
(-0.000911093 9.16883e-05 0.012425)
(0.000911093 -9.16883e-05 0.012425)
(0.000678015 -9.20135e-05 0.0121032)
(0.000462983 -9.04995e-05 0.0118403)
(0.000268557 -8.88737e-05 0.0116663)
(8.79535e-05 -8.79535e-05 0.011581)
(-8.79535e-05 -8.79535e-05 0.011581)
(-0.000268557 -8.88737e-05 0.0116663)
(-0.000462983 -9.04995e-05 0.0118403)
(-0.000678015 -9.20135e-05 0.0121032)
(-0.000911093 -9.16883e-05 0.012425)
(0.000906049 -0.000276778 0.0124747)
(0.000679592 -0.000279073 0.0121753)
(0.000466215 -0.000275497 0.0119216)
(0.000271106 -0.000271106 0.0117508)
(8.88737e-05 -0.000268557 0.0116663)
(-8.88737e-05 -0.000268557 0.0116663)
(-0.000271106 -0.000271106 0.0117508)
(-0.000466215 -0.000275497 0.0119216)
(-0.000679592 -0.000279073 0.0121753)
(-0.000906049 -0.000276778 0.0124747)
(0.000894594 -0.000462244 0.0125616)
(0.000680894 -0.000472823 0.0123136)
(0.000471287 -0.000471287 0.0120831)
(0.000275497 -0.000466215 0.0119216)
(9.04995e-05 -0.000462983 0.0118403)
(-9.04995e-05 -0.000462983 0.0118403)
(-0.000275497 -0.000466215 0.0119216)
(-0.000471287 -0.000471287 0.0120831)
(-0.000680894 -0.000472823 0.0123136)
(-0.000894594 -0.000462244 0.0125616)
(0.000865645 -0.000647813 0.0126496)
(0.000673439 -0.000673439 0.0124943)
(0.000472823 -0.000680894 0.0123136)
(0.000279073 -0.000679592 0.0121753)
(9.20135e-05 -0.000678015 0.0121032)
(-9.20135e-05 -0.000678015 0.0121032)
(-0.000279073 -0.000679592 0.0121753)
(-0.000472823 -0.000680894 0.0123136)
(-0.000673439 -0.000673439 0.0124943)
(-0.000865645 -0.000647813 0.0126496)
(0.000816613 -0.000816613 0.0126725)
(0.000647813 -0.000865645 0.0126496)
(0.000462244 -0.000894594 0.0125616)
(0.000276778 -0.000906049 0.0124747)
(9.16883e-05 -0.000911093 0.012425)
(-9.16883e-05 -0.000911093 0.012425)
(-0.000276778 -0.000906049 0.0124747)
(-0.000462244 -0.000894594 0.0125616)
(-0.000647813 -0.000865645 0.0126496)
(-0.000816613 -0.000816613 0.0126725)
(0.000614342 0.000614342 0.0125239)
(0.000514856 0.000694474 0.0128176)
(0.000388241 0.000748543 0.0129255)
(0.000240185 0.000780008 0.0129455)
(8.09258e-05 0.000794849 0.0129415)
(-8.09258e-05 0.000794849 0.0129415)
(-0.000240185 0.000780008 0.0129455)
(-0.000388241 0.000748543 0.0129255)
(-0.000514856 0.000694474 0.0128176)
(-0.000614342 0.000614342 0.0125239)
(0.000694474 0.000514856 0.0128176)
(0.000578794 0.000578794 0.0129445)
(0.000428706 0.000616358 0.0129066)
(0.000262186 0.000635641 0.0128329)
(8.79931e-05 0.00064401 0.0127844)
(-8.79931e-05 0.00064401 0.0127844)
(-0.000262186 0.000635641 0.0128329)
(-0.000428706 0.000616358 0.0129066)
(-0.000578794 0.000578794 0.0129445)
(-0.000694474 0.000514856 0.0128176)
(0.000748543 0.000388241 0.0129255)
(0.000616358 0.000428706 0.0129066)
(0.000451308 0.000451308 0.0127687)
(0.000273811 0.000462149 0.0126386)
(9.16183e-05 0.000466571 0.012566)
(-9.16183e-05 0.000466571 0.012566)
(-0.000273811 0.000462149 0.0126386)
(-0.000451308 0.000451308 0.0127687)
(-0.000616358 0.000428706 0.0129066)
(-0.000748543 0.000388241 0.0129255)
(0.000780008 0.000240185 0.0129455)
(0.000635641 0.000262186 0.0128329)
(0.000462149 0.000273811 0.0126386)
(0.000279199 0.000279199 0.0124809)
(9.32719e-05 0.000281323 0.0123976)
(-9.32719e-05 0.000281323 0.0123976)
(-0.000279199 0.000279199 0.0124809)
(-0.000462149 0.000273811 0.0126386)
(-0.000635641 0.000262186 0.0128329)
(-0.000780008 0.000240185 0.0129455)
(0.000794849 8.09258e-05 0.0129415)
(0.00064401 8.79931e-05 0.0127844)
(0.000466571 9.16183e-05 0.012566)
(0.000281323 9.32719e-05 0.0123976)
(9.39126e-05 9.39126e-05 0.0123106)
(-9.39126e-05 9.39126e-05 0.0123106)
(-0.000281323 9.32719e-05 0.0123976)
(-0.000466571 9.16183e-05 0.012566)
(-0.00064401 8.79931e-05 0.0127844)
(-0.000794849 8.09258e-05 0.0129415)
(0.000794849 -8.09258e-05 0.0129415)
(0.00064401 -8.79931e-05 0.0127844)
(0.000466571 -9.16183e-05 0.012566)
(0.000281323 -9.32719e-05 0.0123976)
(9.39126e-05 -9.39126e-05 0.0123106)
(-9.39126e-05 -9.39126e-05 0.0123106)
(-0.000281323 -9.32719e-05 0.0123976)
(-0.000466571 -9.16183e-05 0.012566)
(-0.00064401 -8.79931e-05 0.0127844)
(-0.000794849 -8.09258e-05 0.0129415)
(0.000780008 -0.000240185 0.0129455)
(0.000635641 -0.000262186 0.0128329)
(0.000462149 -0.000273811 0.0126386)
(0.000279199 -0.000279199 0.0124809)
(9.32719e-05 -0.000281323 0.0123976)
(-9.32719e-05 -0.000281323 0.0123976)
(-0.000279199 -0.000279199 0.0124809)
(-0.000462149 -0.000273811 0.0126386)
(-0.000635641 -0.000262186 0.0128329)
(-0.000780008 -0.000240185 0.0129455)
(0.000748543 -0.000388241 0.0129255)
(0.000616358 -0.000428706 0.0129066)
(0.000451308 -0.000451308 0.0127687)
(0.000273811 -0.000462149 0.0126386)
(9.16183e-05 -0.000466571 0.012566)
(-9.16183e-05 -0.000466571 0.012566)
(-0.000273811 -0.000462149 0.0126386)
(-0.000451308 -0.000451308 0.0127687)
(-0.000616358 -0.000428706 0.0129066)
(-0.000748543 -0.000388241 0.0129255)
(0.000694474 -0.000514856 0.0128176)
(0.000578794 -0.000578794 0.0129445)
(0.000428706 -0.000616358 0.0129066)
(0.000262186 -0.000635641 0.0128329)
(8.79931e-05 -0.00064401 0.0127844)
(-8.79931e-05 -0.00064401 0.0127844)
(-0.000262186 -0.000635641 0.0128329)
(-0.000428706 -0.000616358 0.0129066)
(-0.000578794 -0.000578794 0.0129445)
(-0.000694474 -0.000514856 0.0128176)
(0.000614342 -0.000614342 0.0125239)
(0.000514856 -0.000694474 0.0128176)
(0.000388241 -0.000748543 0.0129255)
(0.000240185 -0.000780008 0.0129455)
(8.09258e-05 -0.000794849 0.0129415)
(-8.09258e-05 -0.000794849 0.0129415)
(-0.000240185 -0.000780008 0.0129455)
(-0.000388241 -0.000748543 0.0129255)
(-0.000514856 -0.000694474 0.0128176)
(-0.000614342 -0.000614342 0.0125239)
(0.00029901 0.00029901 0.0127504)
(0.000261722 0.000364231 0.0132059)
(0.00020735 0.000411589 0.0134303)
(0.000131825 0.000442946 0.0135217)
(4.50583e-05 0.000458217 0.0135508)
(-4.50583e-05 0.000458217 0.0135508)
(-0.000131825 0.000442946 0.0135217)
(-0.00020735 0.000411589 0.0134303)
(-0.000261722 0.000364231 0.0132059)
(-0.00029901 0.00029901 0.0127504)
(0.000364231 0.000261722 0.0132059)
(0.000321018 0.000321018 0.0135124)
(0.000249302 0.000362364 0.0135846)
(0.00015719 0.000387955 0.0135709)
(5.35658e-05 0.000400198 0.0135484)
(-5.35658e-05 0.000400198 0.0135484)
(-0.00015719 0.000387955 0.0135709)
(-0.000249302 0.000362364 0.0135846)
(-0.000321018 0.000321018 0.0135124)
(-0.000364231 0.000261722 0.0132059)
(0.000411589 0.00020735 0.0134303)
(0.000362364 0.000249302 0.0135846)
(0.000279118 0.000279118 0.0135405)
(0.000175057 0.000297455 0.0134566)
(5.95429e-05 0.000306181 0.0134025)
(-5.95429e-05 0.000306181 0.0134025)
(-0.000175057 0.000297455 0.0134566)
(-0.000279118 0.000279118 0.0135405)
(-0.000362364 0.000249302 0.0135846)
(-0.000411589 0.00020735 0.0134303)
(0.000442946 0.000131825 0.0135217)
(0.000387955 0.00015719 0.0135709)
(0.000297455 0.000175057 0.0134566)
(0.000186065 0.000186065 0.0133353)
(6.32288e-05 0.000191296 0.013266)
(-6.32288e-05 0.000191296 0.013266)
(-0.000186065 0.000186065 0.0133353)
(-0.000297455 0.000175057 0.0134566)
(-0.000387955 0.00015719 0.0135709)
(-0.000442946 0.000131825 0.0135217)
(0.000458217 4.50583e-05 0.0135508)
(0.000400198 5.35658e-05 0.0135484)
(0.000306181 5.95429e-05 0.0134025)
(0.000191296 6.32288e-05 0.013266)
(6.49776e-05 6.49776e-05 0.0131911)
(-6.49776e-05 6.49776e-05 0.0131911)
(-0.000191296 6.32288e-05 0.013266)
(-0.000306181 5.95429e-05 0.0134025)
(-0.000400198 5.35658e-05 0.0135484)
(-0.000458217 4.50583e-05 0.0135508)
(0.000458217 -4.50583e-05 0.0135508)
(0.000400198 -5.35658e-05 0.0135484)
(0.000306181 -5.95429e-05 0.0134025)
(0.000191296 -6.32288e-05 0.013266)
(6.49776e-05 -6.49776e-05 0.0131911)
(-6.49776e-05 -6.49776e-05 0.0131911)
(-0.000191296 -6.32288e-05 0.013266)
(-0.000306181 -5.95429e-05 0.0134025)
(-0.000400198 -5.35658e-05 0.0135484)
(-0.000458217 -4.50583e-05 0.0135508)
(0.000442946 -0.000131825 0.0135217)
(0.000387955 -0.00015719 0.0135709)
(0.000297455 -0.000175057 0.0134566)
(0.000186065 -0.000186065 0.0133353)
(6.32288e-05 -0.000191296 0.013266)
(-6.32288e-05 -0.000191296 0.013266)
(-0.000186065 -0.000186065 0.0133353)
(-0.000297455 -0.000175057 0.0134566)
(-0.000387955 -0.00015719 0.0135709)
(-0.000442946 -0.000131825 0.0135217)
(0.000411589 -0.00020735 0.0134303)
(0.000362364 -0.000249302 0.0135846)
(0.000279118 -0.000279118 0.0135405)
(0.000175057 -0.000297455 0.0134566)
(5.95429e-05 -0.000306181 0.0134025)
(-5.95429e-05 -0.000306181 0.0134025)
(-0.000175057 -0.000297455 0.0134566)
(-0.000279118 -0.000279118 0.0135405)
(-0.000362364 -0.000249302 0.0135846)
(-0.000411589 -0.00020735 0.0134303)
(0.000364231 -0.000261722 0.0132059)
(0.000321018 -0.000321018 0.0135124)
(0.000249302 -0.000362364 0.0135846)
(0.00015719 -0.000387955 0.0135709)
(5.35658e-05 -0.000400198 0.0135484)
(-5.35658e-05 -0.000400198 0.0135484)
(-0.00015719 -0.000387955 0.0135709)
(-0.000249302 -0.000362364 0.0135846)
(-0.000321018 -0.000321018 0.0135124)
(-0.000364231 -0.000261722 0.0132059)
(0.00029901 -0.00029901 0.0127504)
(0.000261722 -0.000364231 0.0132059)
(0.00020735 -0.000411589 0.0134303)
(0.000131825 -0.000442946 0.0135217)
(4.50583e-05 -0.000458217 0.0135508)
(-4.50583e-05 -0.000458217 0.0135508)
(-0.000131825 -0.000442946 0.0135217)
(-0.00020735 -0.000411589 0.0134303)
(-0.000261722 -0.000364231 0.0132059)
(-0.00029901 -0.00029901 0.0127504)
(0.000146938 0.000146938 0.0126609)
(0.00013183 0.000183729 0.0132156)
(0.000108144 0.000212984 0.0135207)
(7.0124e-05 0.000233557 0.0136672)
(2.42204e-05 0.000243829 0.0137239)
(-2.42204e-05 0.000243829 0.0137239)
(-7.0124e-05 0.000233557 0.0136672)
(-0.000108144 0.000212984 0.0135207)
(-0.00013183 0.000183729 0.0132156)
(-0.000146938 0.000146938 0.0126609)
(0.000183729 0.00013183 0.0132156)
(0.000169419 0.000169419 0.0136507)
(0.000136675 0.00019803 0.0138173)
(8.82468e-05 0.000217094 0.0138645)
(3.04265e-05 0.000226557 0.0138715)
(-3.04265e-05 0.000226557 0.0138715)
(-8.82468e-05 0.000217094 0.0138645)
(-0.000136675 0.00019803 0.0138173)
(-0.000169419 0.000169419 0.0136507)
(-0.000183729 0.00013183 0.0132156)
(0.000212984 0.000108144 0.0135207)
(0.00019803 0.000136675 0.0138173)
(0.000158973 0.000158973 0.0138723)
(0.000102325 0.000173739 0.0138502)
(3.52419e-05 0.00018104 0.0138257)
(-3.52419e-05 0.00018104 0.0138257)
(-0.000102325 0.000173739 0.0138502)
(-0.000158973 0.000158973 0.0138723)
(-0.00019803 0.000136675 0.0138173)
(-0.000212984 0.000108144 0.0135207)
(0.000233557 7.0124e-05 0.0136672)
(0.000217094 8.82468e-05 0.0138645)
(0.000173739 0.000102325 0.0138502)
(0.000111609 0.000111609 0.0137901)
(3.84102e-05 0.000116179 0.0137498)
(-3.84102e-05 0.000116179 0.0137498)
(-0.000111609 0.000111609 0.0137901)
(-0.000173739 0.000102325 0.0138502)
(-0.000217094 8.82468e-05 0.0138645)
(-0.000233557 7.0124e-05 0.0136672)
(0.000243829 2.42204e-05 0.0137239)
(0.000226557 3.04265e-05 0.0138715)
(0.00018104 3.52419e-05 0.0138257)
(0.000116179 3.84102e-05 0.0137498)
(3.99649e-05 3.99649e-05 0.0137036)
(-3.99649e-05 3.99649e-05 0.0137036)
(-0.000116179 3.84102e-05 0.0137498)
(-0.00018104 3.52419e-05 0.0138257)
(-0.000226557 3.04265e-05 0.0138715)
(-0.000243829 2.42204e-05 0.0137239)
(0.000243829 -2.42204e-05 0.0137239)
(0.000226557 -3.04265e-05 0.0138715)
(0.00018104 -3.52419e-05 0.0138257)
(0.000116179 -3.84102e-05 0.0137498)
(3.99649e-05 -3.99649e-05 0.0137036)
(-3.99649e-05 -3.99649e-05 0.0137036)
(-0.000116179 -3.84102e-05 0.0137498)
(-0.00018104 -3.52419e-05 0.0138257)
(-0.000226557 -3.04265e-05 0.0138715)
(-0.000243829 -2.42204e-05 0.0137239)
(0.000233557 -7.0124e-05 0.0136672)
(0.000217094 -8.82468e-05 0.0138645)
(0.000173739 -0.000102325 0.0138502)
(0.000111609 -0.000111609 0.0137901)
(3.84102e-05 -0.000116179 0.0137498)
(-3.84102e-05 -0.000116179 0.0137498)
(-0.000111609 -0.000111609 0.0137901)
(-0.000173739 -0.000102325 0.0138502)
(-0.000217094 -8.82468e-05 0.0138645)
(-0.000233557 -7.01239e-05 0.0136672)
(0.000212984 -0.000108144 0.0135207)
(0.00019803 -0.000136675 0.0138173)
(0.000158973 -0.000158973 0.0138723)
(0.000102325 -0.000173739 0.0138502)
(3.52419e-05 -0.00018104 0.0138257)
(-3.52419e-05 -0.00018104 0.0138257)
(-0.000102325 -0.000173739 0.0138502)
(-0.000158973 -0.000158973 0.0138723)
(-0.00019803 -0.000136675 0.0138173)
(-0.000212984 -0.000108144 0.0135207)
(0.000183729 -0.00013183 0.0132156)
(0.000169419 -0.000169419 0.0136507)
(0.000136675 -0.00019803 0.0138173)
(8.82468e-05 -0.000217094 0.0138645)
(3.04265e-05 -0.000226557 0.0138715)
(-3.04265e-05 -0.000226557 0.0138715)
(-8.82468e-05 -0.000217094 0.0138645)
(-0.000136675 -0.00019803 0.0138173)
(-0.000169419 -0.000169419 0.0136507)
(-0.000183729 -0.00013183 0.0132156)
(0.000146938 -0.000146938 0.0126609)
(0.00013183 -0.000183729 0.0132156)
(0.000108144 -0.000212984 0.0135207)
(7.0124e-05 -0.000233557 0.0136672)
(2.42204e-05 -0.000243829 0.0137239)
(-2.42204e-05 -0.000243829 0.0137239)
(-7.01239e-05 -0.000233557 0.0136672)
(-0.000108144 -0.000212984 0.0135207)
(-0.00013183 -0.000183729 0.0132156)
(-0.000146938 -0.000146938 0.0126609)
(5.76191e-05 5.76191e-05 0.0125947)
(5.44205e-05 7.6591e-05 0.0131825)
(4.71088e-05 9.27593e-05 0.0135205)
(3.14601e-05 0.000104781 0.0136924)
(1.10342e-05 0.000110937 0.0137626)
(-1.10342e-05 0.000110937 0.0137626)
(-3.14601e-05 0.000104781 0.0136924)
(-4.71088e-05 9.27593e-05 0.0135205)
(-5.44205e-05 7.6591e-05 0.0131825)
(-5.76191e-05 5.76191e-05 0.0125947)
(7.6591e-05 5.44205e-05 0.0131825)
(7.56135e-05 7.56135e-05 0.013674)
(6.43352e-05 9.30981e-05 0.0138896)
(4.28929e-05 0.000105497 0.0139723)
(1.50206e-05 0.000111846 0.0139978)
(-1.50206e-05 0.000111846 0.0139978)
(-4.28929e-05 0.000105497 0.0139723)
(-6.43352e-05 9.30981e-05 0.0138896)
(-7.56136e-05 7.56136e-05 0.013674)
(-7.6591e-05 5.44205e-05 0.0131825)
(9.27593e-05 4.71088e-05 0.0135205)
(9.30981e-05 6.43352e-05 0.0138896)
(7.89142e-05 7.89142e-05 0.0140048)
(5.24821e-05 8.91319e-05 0.0140246)
(1.83564e-05 9.43347e-05 0.0140214)
(-1.83564e-05 9.43347e-05 0.0140214)
(-5.24821e-05 8.91319e-05 0.0140246)
(-7.89142e-05 7.89142e-05 0.0140048)
(-9.30981e-05 6.43352e-05 0.0138896)
(-9.27593e-05 4.71088e-05 0.0135205)
(0.000104781 3.14601e-05 0.0136924)
(0.000105497 4.28929e-05 0.0139723)
(8.91319e-05 5.24821e-05 0.0140246)
(5.91377e-05 5.91377e-05 0.0140099)
(2.06611e-05 6.25034e-05 0.0139924)
(-2.06611e-05 6.25034e-05 0.0139924)
(-5.91377e-05 5.91377e-05 0.0140099)
(-8.91319e-05 5.24821e-05 0.0140246)
(-0.000105497 4.28929e-05 0.0139723)
(-0.000104781 3.14601e-05 0.0136924)
(0.000110937 1.10342e-05 0.0137626)
(0.000111846 1.50206e-05 0.0139978)
(9.43347e-05 1.83564e-05 0.0140214)
(6.25033e-05 2.06611e-05 0.0139924)
(2.1822e-05 2.1822e-05 0.0139693)
(-2.1822e-05 2.1822e-05 0.0139693)
(-6.25033e-05 2.06611e-05 0.0139924)
(-9.43347e-05 1.83564e-05 0.0140214)
(-0.000111846 1.50206e-05 0.0139978)
(-0.000110937 1.10342e-05 0.0137626)
(0.000110937 -1.10342e-05 0.0137626)
(0.000111846 -1.50206e-05 0.0139978)
(9.43347e-05 -1.83564e-05 0.0140214)
(6.25033e-05 -2.06611e-05 0.0139924)
(2.1822e-05 -2.1822e-05 0.0139693)
(-2.1822e-05 -2.1822e-05 0.0139693)
(-6.25033e-05 -2.06611e-05 0.0139924)
(-9.43347e-05 -1.83564e-05 0.0140214)
(-0.000111846 -1.50206e-05 0.0139978)
(-0.000110937 -1.10342e-05 0.0137626)
(0.000104781 -3.14601e-05 0.0136924)
(0.000105497 -4.28929e-05 0.0139723)
(8.91319e-05 -5.24821e-05 0.0140246)
(5.91377e-05 -5.91377e-05 0.0140099)
(2.06611e-05 -6.25033e-05 0.0139924)
(-2.06611e-05 -6.25033e-05 0.0139924)
(-5.91377e-05 -5.91377e-05 0.0140099)
(-8.91319e-05 -5.24821e-05 0.0140246)
(-0.000105497 -4.28929e-05 0.0139723)
(-0.000104781 -3.14601e-05 0.0136924)
(9.27593e-05 -4.71088e-05 0.0135205)
(9.30981e-05 -6.43352e-05 0.0138896)
(7.89142e-05 -7.89142e-05 0.0140048)
(5.24821e-05 -8.91319e-05 0.0140246)
(1.83564e-05 -9.43347e-05 0.0140214)
(-1.83564e-05 -9.43347e-05 0.0140214)
(-5.24821e-05 -8.91319e-05 0.0140246)
(-7.89142e-05 -7.89142e-05 0.0140048)
(-9.30981e-05 -6.43352e-05 0.0138896)
(-9.27593e-05 -4.71088e-05 0.0135205)
(7.6591e-05 -5.44205e-05 0.0131825)
(7.56135e-05 -7.56135e-05 0.013674)
(6.43352e-05 -9.30981e-05 0.0138896)
(4.28929e-05 -0.000105497 0.0139723)
(1.50206e-05 -0.000111846 0.0139978)
(-1.50206e-05 -0.000111846 0.0139978)
(-4.28929e-05 -0.000105497 0.0139723)
(-6.43352e-05 -9.30981e-05 0.0138896)
(-7.56135e-05 -7.56135e-05 0.013674)
(-7.6591e-05 -5.44205e-05 0.0131825)
(5.76191e-05 -5.76191e-05 0.0125947)
(5.44205e-05 -7.6591e-05 0.0131825)
(4.71088e-05 -9.27593e-05 0.0135205)
(3.14601e-05 -0.000104781 0.0136924)
(1.10342e-05 -0.000110937 0.0137626)
(-1.10342e-05 -0.000110937 0.0137626)
(-3.14601e-05 -0.000104781 0.0136924)
(-4.71088e-05 -9.27593e-05 0.0135205)
(-5.44205e-05 -7.6591e-05 0.0131825)
(-5.76191e-05 -5.76191e-05 0.0125947)
(1.86688e-05 1.86688e-05 0.0125588)
(1.87665e-05 2.66672e-05 0.0131567)
(1.72881e-05 3.40093e-05 0.0135073)
(1.19175e-05 3.97835e-05 0.0136903)
(4.25511e-06 4.28135e-05 0.0137668)
(-4.2551e-06 4.28135e-05 0.0137668)
(-1.19175e-05 3.97835e-05 0.0136903)
(-1.72881e-05 3.40093e-05 0.0135073)
(-1.87665e-05 2.66672e-05 0.0131567)
(-1.86688e-05 1.86688e-05 0.0125588)
(2.66672e-05 1.87665e-05 0.0131567)
(2.85898e-05 2.85898e-05 0.013671)
(2.58464e-05 3.73648e-05 0.0139101)
(1.78355e-05 4.39572e-05 0.0140115)
(6.35232e-06 4.74283e-05 0.0140473)
(-6.35231e-06 4.74283e-05 0.0140473)
(-1.78355e-05 4.39572e-05 0.0140115)
(-2.58464e-05 3.73648e-05 0.0139101)
(-2.85898e-05 2.85898e-05 0.013671)
(-2.66672e-05 1.87665e-05 0.0131567)
(3.40093e-05 1.72881e-05 0.0135073)
(3.73648e-05 2.58464e-05 0.0139101)
(3.36442e-05 3.36442e-05 0.0140578)
(2.316e-05 3.93987e-05 0.0141021)
(8.2324e-06 4.24044e-05 0.0141118)
(-8.23239e-06 4.24044e-05 0.0141118)
(-2.316e-05 3.93987e-05 0.0141021)
(-3.36442e-05 3.36442e-05 0.0140578)
(-3.73648e-05 2.58464e-05 0.0139101)
(-3.40093e-05 1.72881e-05 0.0135073)
(3.97835e-05 1.19174e-05 0.0136903)
(4.39572e-05 1.78355e-05 0.0140115)
(3.93987e-05 2.316e-05 0.0141021)
(2.70345e-05 2.70345e-05 0.0141152)
(9.5922e-06 2.90411e-05 0.0141122)
(-9.5922e-06 2.90411e-05 0.0141122)
(-2.70344e-05 2.70345e-05 0.0141152)
(-3.93987e-05 2.316e-05 0.0141021)
(-4.39572e-05 1.78355e-05 0.0140115)
(-3.97835e-05 1.19174e-05 0.0136903)
(4.28135e-05 4.2551e-06 0.0137668)
(4.74283e-05 6.35231e-06 0.0140473)
(4.24044e-05 8.2324e-06 0.0141118)
(2.90411e-05 9.5922e-06 0.0141122)
(1.02935e-05 1.02935e-05 0.0141042)
(-1.02935e-05 1.02935e-05 0.0141042)
(-2.90411e-05 9.5922e-06 0.0141122)
(-4.24044e-05 8.2324e-06 0.0141118)
(-4.74283e-05 6.35232e-06 0.0140473)
(-4.28135e-05 4.2551e-06 0.0137668)
(4.28135e-05 -4.2551e-06 0.0137668)
(4.74283e-05 -6.35231e-06 0.0140473)
(4.24044e-05 -8.2324e-06 0.0141118)
(2.90411e-05 -9.5922e-06 0.0141122)
(1.02935e-05 -1.02935e-05 0.0141042)
(-1.02935e-05 -1.02935e-05 0.0141042)
(-2.90411e-05 -9.5922e-06 0.0141122)
(-4.24044e-05 -8.23239e-06 0.0141118)
(-4.74283e-05 -6.35231e-06 0.0140473)
(-4.28135e-05 -4.2551e-06 0.0137668)
(3.97835e-05 -1.19175e-05 0.0136903)
(4.39572e-05 -1.78355e-05 0.0140115)
(3.93987e-05 -2.316e-05 0.0141021)
(2.70345e-05 -2.70344e-05 0.0141152)
(9.5922e-06 -2.90411e-05 0.0141122)
(-9.5922e-06 -2.90411e-05 0.0141122)
(-2.70344e-05 -2.70344e-05 0.0141152)
(-3.93987e-05 -2.316e-05 0.0141021)
(-4.39572e-05 -1.78355e-05 0.0140115)
(-3.97835e-05 -1.19174e-05 0.0136903)
(3.40093e-05 -1.72881e-05 0.0135073)
(3.73648e-05 -2.58464e-05 0.0139101)
(3.36443e-05 -3.36442e-05 0.0140578)
(2.31601e-05 -3.93987e-05 0.0141021)
(8.2324e-06 -4.24044e-05 0.0141118)
(-8.2324e-06 -4.24044e-05 0.0141118)
(-2.316e-05 -3.93987e-05 0.0141021)
(-3.36442e-05 -3.36442e-05 0.0140578)
(-3.73648e-05 -2.58464e-05 0.0139101)
(-3.40093e-05 -1.72881e-05 0.0135073)
(2.66672e-05 -1.87665e-05 0.0131567)
(2.85898e-05 -2.85898e-05 0.013671)
(2.58464e-05 -3.73648e-05 0.0139101)
(1.78355e-05 -4.39572e-05 0.0140115)
(6.35231e-06 -4.74283e-05 0.0140473)
(-6.35231e-06 -4.74283e-05 0.0140473)
(-1.78355e-05 -4.39572e-05 0.0140115)
(-2.58464e-05 -3.73648e-05 0.0139101)
(-2.85898e-05 -2.85898e-05 0.013671)
(-2.66672e-05 -1.87665e-05 0.0131567)
(1.86688e-05 -1.86688e-05 0.0125588)
(1.87665e-05 -2.66672e-05 0.0131567)
(1.72881e-05 -3.40093e-05 0.0135073)
(1.19174e-05 -3.97835e-05 0.0136903)
(4.2551e-06 -4.28135e-05 0.0137668)
(-4.2551e-06 -4.28135e-05 0.0137668)
(-1.19174e-05 -3.97835e-05 0.0136903)
(-1.72881e-05 -3.40093e-05 0.0135073)
(-1.87665e-05 -2.66672e-05 0.0131567)
(-1.86688e-05 -1.86688e-05 0.0125588)
(5.02856e-06 5.02857e-06 0.0125412)
(5.559e-06 7.96166e-06 0.0131407)
(5.56991e-06 1.08391e-05 0.0134952)
(3.99359e-06 1.32244e-05 0.0136821)
(1.45832e-06 1.45029e-05 0.0137611)
(-1.45832e-06 1.45029e-05 0.0137611)
(-3.99359e-06 1.32244e-05 0.0136821)
(-5.56991e-06 1.08391e-05 0.0134952)
(-5.559e-06 7.96165e-06 0.0131407)
(-5.02857e-06 5.02856e-06 0.0125412)
(7.96166e-06 5.559e-06 0.0131407)
(9.51098e-06 9.51098e-06 0.0136626)
(9.22669e-06 1.32867e-05 0.0139112)
(6.60871e-06 1.6261e-05 0.0140211)
(2.39732e-06 1.78625e-05 0.0140616)
(-2.39731e-06 1.78625e-05 0.0140616)
(-6.60871e-06 1.6261e-05 0.0140211)
(-9.2267e-06 1.32867e-05 0.0139112)
(-9.51098e-06 9.51098e-06 0.0136626)
(-7.96165e-06 5.559e-06 0.0131407)
(1.08391e-05 5.56991e-06 0.0134952)
(1.32867e-05 9.22669e-06 0.0139112)
(1.27672e-05 1.27672e-05 0.0140738)
(9.10121e-06 1.5493e-05 0.0141302)
(3.28808e-06 1.6946e-05 0.0141466)
(-3.28807e-06 1.6946e-05 0.0141466)
(-9.10121e-06 1.5493e-05 0.0141302)
(-1.27672e-05 1.27672e-05 0.0140738)
(-1.32867e-05 9.2267e-06 0.0139112)
(-1.08391e-05 5.56991e-06 0.0134952)
(1.32244e-05 3.99358e-06 0.0136821)
(1.6261e-05 6.60871e-06 0.0140211)
(1.5493e-05 9.10121e-06 0.0141302)
(1.09884e-05 1.09884e-05 0.014158)
(3.9579e-06 1.1985e-05 0.0141627)
(-3.9579e-06 1.1985e-05 0.0141627)
(-1.09884e-05 1.09884e-05 0.014158)
(-1.5493e-05 9.10121e-06 0.0141302)
(-1.6261e-05 6.60871e-06 0.0140211)
(-1.32244e-05 3.99359e-06 0.0136821)
(1.45029e-05 1.45832e-06 0.0137611)
(1.78625e-05 2.39732e-06 0.0140616)
(1.6946e-05 3.28808e-06 0.0141466)
(1.1985e-05 3.9579e-06 0.0141627)
(4.31007e-06 4.31007e-06 0.014163)
(-4.31007e-06 4.31007e-06 0.014163)
(-1.1985e-05 3.9579e-06 0.0141627)
(-1.6946e-05 3.28808e-06 0.0141466)
(-1.78625e-05 2.39732e-06 0.0140616)
(-1.45029e-05 1.45832e-06 0.0137611)
(1.45029e-05 -1.45832e-06 0.0137611)
(1.78625e-05 -2.39731e-06 0.0140616)
(1.6946e-05 -3.28807e-06 0.0141466)
(1.1985e-05 -3.9579e-06 0.0141627)
(4.31007e-06 -4.31007e-06 0.014163)
(-4.31007e-06 -4.31007e-06 0.014163)
(-1.1985e-05 -3.9579e-06 0.0141627)
(-1.6946e-05 -3.28807e-06 0.0141466)
(-1.78625e-05 -2.39731e-06 0.0140616)
(-1.45029e-05 -1.45832e-06 0.0137611)
(1.32244e-05 -3.99359e-06 0.0136821)
(1.6261e-05 -6.60871e-06 0.0140211)
(1.5493e-05 -9.10121e-06 0.0141302)
(1.09884e-05 -1.09884e-05 0.014158)
(3.9579e-06 -1.1985e-05 0.0141627)
(-3.9579e-06 -1.1985e-05 0.0141627)
(-1.09884e-05 -1.09884e-05 0.014158)
(-1.5493e-05 -9.10121e-06 0.0141302)
(-1.6261e-05 -6.6087e-06 0.0140211)
(-1.32244e-05 -3.99358e-06 0.0136821)
(1.08391e-05 -5.56991e-06 0.0134952)
(1.32867e-05 -9.2267e-06 0.0139112)
(1.27672e-05 -1.27672e-05 0.0140738)
(9.10121e-06 -1.5493e-05 0.0141302)
(3.28808e-06 -1.6946e-05 0.0141466)
(-3.28807e-06 -1.6946e-05 0.0141466)
(-9.1012e-06 -1.5493e-05 0.0141302)
(-1.27672e-05 -1.27672e-05 0.0140738)
(-1.32867e-05 -9.22668e-06 0.0139112)
(-1.08391e-05 -5.5699e-06 0.0134952)
(7.96165e-06 -5.559e-06 0.0131407)
(9.51097e-06 -9.51098e-06 0.0136626)
(9.2267e-06 -1.32867e-05 0.0139112)
(6.60871e-06 -1.6261e-05 0.0140211)
(2.39731e-06 -1.78625e-05 0.0140616)
(-2.39731e-06 -1.78625e-05 0.0140616)
(-6.60871e-06 -1.6261e-05 0.0140211)
(-9.22669e-06 -1.32867e-05 0.0139112)
(-9.51097e-06 -9.51097e-06 0.0136626)
(-7.96166e-06 -5.559e-06 0.0131407)
(5.02856e-06 -5.02857e-06 0.0125412)
(5.559e-06 -7.96165e-06 0.0131407)
(5.56991e-06 -1.08391e-05 0.0134952)
(3.99359e-06 -1.32244e-05 0.0136821)