/*--------------------------------*- C++ -*----------------------------------*\
| =========                 |                                                 |
| \\      /  F ield         | OpenFOAM: The Open Source CFD Toolbox           |
|  \\    /   O peration     | Version:  2412                                  |
|   \\  /    A nd           | Website:  www.openfoam.com                      |
|    \\/     M anipulation  |                                                 |
\*---------------------------------------------------------------------------*/
FoamFile
{
    version     2.0;
    format      ascii;
    arch        "LSB;label=32;scalar=64";
    class       volVectorField;
    location    "1.1";
    object      U;
}
// * * * * * * * * * * * * * * * * * * * * * * * * * * * * * * * * * * * * * //

dimensions      [0 1 -1 0 0 0 0];

internalField   nonuniform List<vector> 
15000
(
(0.000697302 0.000697302 0.0105024)
(0.000495865 0.00062142 0.0104457)
(0.000337239 0.00060867 0.0104055)
(0.000198254 0.000590462 0.0103793)
(6.49618e-05 0.000582853 0.0103666)
(-6.49619e-05 0.000582853 0.0103666)
(-0.000198255 0.000590462 0.0103793)
(-0.000337239 0.00060867 0.0104055)
(-0.000495865 0.00062142 0.0104457)
(-0.000697302 0.000697302 0.0105024)
(0.00062142 0.000495865 0.0104457)
(0.000462116 0.000462116 0.0103869)
(0.000320171 0.000443945 0.0103448)
(0.000188276 0.000431375 0.0103179)
(6.19577e-05 0.000425653 0.0103048)
(-6.19577e-05 0.000425653 0.0103048)
(-0.000188276 0.000431375 0.0103179)
(-0.000320171 0.000443945 0.0103448)
(-0.000462116 0.000462116 0.0103869)
(-0.00062142 0.000495865 0.0104457)
(0.00060867 0.000337239 0.0104055)
(0.000443945 0.000320171 0.0103448)
(0.000306005 0.000306005 0.0103025)
(0.000179018 0.000295711 0.010276)
(5.88516e-05 0.000290669 0.0102633)
(-5.88516e-05 0.000290669 0.0102633)
(-0.000179018 0.000295711 0.010276)
(-0.000306005 0.000306005 0.0103025)
(-0.000443945 0.000320171 0.0103448)
(-0.00060867 0.000337239 0.0104055)
(0.000590462 0.000198255 0.0103793)
(0.000431375 0.000188276 0.0103179)
(0.000295711 0.000179018 0.010276)
(0.000172408 0.000172408 0.0102502)
(5.66214e-05 0.000169133 0.0102378)
(-5.66214e-05 0.000169133 0.0102378)
(-0.000172408 0.000172408 0.0102502)
(-0.000295711 0.000179018 0.010276)
(-0.000431375 0.000188276 0.0103179)
(-0.000590462 0.000198255 0.0103793)
(0.000582853 6.49618e-05 0.0103666)
(0.000425653 6.19576e-05 0.0103048)
(0.000290669 5.88516e-05 0.0102633)
(0.000169133 5.66214e-05 0.0102378)
(5.55074e-05 5.55074e-05 0.0102258)
(-5.55074e-05 5.55074e-05 0.0102258)
(-0.000169133 5.66214e-05 0.0102378)
(-0.000290669 5.88517e-05 0.0102633)
(-0.000425653 6.19577e-05 0.0103048)
(-0.000582853 6.49618e-05 0.0103666)
(0.000582853 -6.49618e-05 0.0103666)
(0.000425653 -6.19577e-05 0.0103048)
(0.000290669 -5.88517e-05 0.0102633)
(0.000169133 -5.66213e-05 0.0102378)
(5.55074e-05 -5.55073e-05 0.0102258)
(-5.55073e-05 -5.55073e-05 0.0102258)
(-0.000169133 -5.66213e-05 0.0102378)
(-0.000290669 -5.88516e-05 0.0102633)
(-0.000425653 -6.19576e-05 0.0103048)
(-0.000582853 -6.49618e-05 0.0103666)
(0.000590462 -0.000198255 0.0103793)
(0.000431375 -0.000188276 0.0103179)
(0.000295711 -0.000179018 0.010276)
(0.000172408 -0.000172408 0.0102502)
(5.66214e-05 -0.000169133 0.0102378)
(-5.66213e-05 -0.000169133 0.0102378)
(-0.000172408 -0.000172408 0.0102502)
(-0.000295711 -0.000179018 0.010276)
(-0.000431375 -0.000188276 0.0103179)
(-0.000590462 -0.000198255 0.0103793)
(0.00060867 -0.000337239 0.0104055)
(0.000443945 -0.000320171 0.0103448)
(0.000306005 -0.000306005 0.0103025)
(0.000179018 -0.000295711 0.010276)
(5.88517e-05 -0.000290669 0.0102633)
(-5.88516e-05 -0.000290669 0.0102633)
(-0.000179018 -0.000295711 0.010276)
(-0.000306005 -0.000306005 0.0103025)
(-0.000443946 -0.000320171 0.0103448)
(-0.00060867 -0.000337239 0.0104055)
(0.00062142 -0.000495865 0.0104457)
(0.000462116 -0.000462116 0.0103869)
(0.000320171 -0.000443945 0.0103448)
(0.000188276 -0.000431375 0.0103179)
(6.19577e-05 -0.000425653 0.0103048)
(-6.19576e-05 -0.000425653 0.0103048)
(-0.000188276 -0.000431375 0.0103179)
(-0.000320171 -0.000443946 0.0103448)
(-0.000462116 -0.000462117 0.0103869)
(-0.00062142 -0.000495865 0.0104457)
(0.000697302 -0.000697302 0.0105024)
(0.000495865 -0.00062142 0.0104457)
(0.000337239 -0.00060867 0.0104055)
(0.000198254 -0.000590462 0.0103793)
(6.49618e-05 -0.000582853 0.0103666)
(-6.49618e-05 -0.000582853 0.0103666)
(-0.000198255 -0.000590462 0.0103793)
(-0.00033724 -0.00060867 0.0104055)
(-0.000495865 -0.00062142 0.0104457)
(-0.000697302 -0.000697303 0.0105024)
(0.000240929 0.000240929 0.0112495)
(0.000190947 0.00024933 0.0111585)
(0.000140397 0.000267107 0.0110928)
(8.67013e-05 0.000275133 0.0110493)
(2.90488e-05 0.000279865 0.011028)
(-2.90488e-05 0.000279865 0.011028)
(-8.67012e-05 0.000275133 0.0110493)
(-0.000140397 0.000267107 0.0110928)
(-0.000190947 0.00024933 0.0111585)
(-0.000240929 0.000240929 0.0112495)
(0.00024933 0.000190947 0.0111585)
(0.000206247 0.000206247 0.0110603)
(0.00015454 0.000219401 0.0109881)
(9.56052e-05 0.000227331 0.0109411)
(3.22731e-05 0.000231484 0.010918)
(-3.22731e-05 0.000231484 0.010918)
(-9.56052e-05 0.000227331 0.0109411)
(-0.00015454 0.000219401 0.0109881)
(-0.000206247 0.000206247 0.0110603)
(-0.00024933 0.000190947 0.0111585)
(0.000267107 0.000140397 0.0110928)
(0.000219401 0.00015454 0.0109881)
(0.000164136 0.000164136 0.0109129)
(0.000101237 0.00016979 0.0108646)
(3.41676e-05 0.000172541 0.010841)
(-3.41676e-05 0.000172541 0.010841)
(-0.000101237 0.00016979 0.0108646)
(-0.000164136 0.000164136 0.0109129)
(-0.000219401 0.00015454 0.0109881)
(-0.000267107 0.000140397 0.0110928)
(0.000275133 8.67013e-05 0.0110493)
(0.000227331 9.56052e-05 0.0109411)
(0.00016979 0.000101237 0.0108646)
(0.000104554 0.000104554 0.010816)
(3.52751e-05 0.000106147 0.0107924)
(-3.52751e-05 0.000106147 0.0107924)
(-0.000104554 0.000104554 0.010816)
(-0.00016979 0.000101238 0.0108646)
(-0.000227331 9.56052e-05 0.0109411)
(-0.000275133 8.67012e-05 0.0110493)
(0.000279865 2.90488e-05 0.011028)
(0.000231484 3.22731e-05 0.010918)
(0.000172541 3.41676e-05 0.010841)
(0.000106147 3.52751e-05 0.0107924)
(3.58009e-05 3.58009e-05 0.0107689)
(-3.58009e-05 3.58009e-05 0.0107689)
(-0.000106147 3.52751e-05 0.0107924)
(-0.000172541 3.41677e-05 0.010841)
(-0.000231484 3.22732e-05 0.010918)
(-0.000279865 2.90488e-05 0.011028)
(0.000279865 -2.90488e-05 0.011028)
(0.000231484 -3.22731e-05 0.010918)
(0.000172541 -3.41676e-05 0.010841)
(0.000106147 -3.52751e-05 0.0107924)
(3.58009e-05 -3.58009e-05 0.0107689)
(-3.58009e-05 -3.58008e-05 0.0107689)
(-0.000106147 -3.52751e-05 0.0107924)
(-0.000172541 -3.41675e-05 0.010841)
(-0.000231484 -3.22731e-05 0.010918)
(-0.000279865 -2.90488e-05 0.011028)
(0.000275133 -8.67013e-05 0.0110493)
(0.000227331 -9.56052e-05 0.0109411)
(0.00016979 -0.000101238 0.0108646)
(0.000104554 -0.000104554 0.010816)
(3.52751e-05 -0.000106147 0.0107924)
(-3.52751e-05 -0.000106147 0.0107924)
(-0.000104554 -0.000104554 0.010816)
(-0.00016979 -0.000101237 0.0108646)
(-0.000227331 -9.56053e-05 0.0109411)
(-0.000275133 -8.67014e-05 0.0110493)
(0.000267107 -0.000140397 0.0110928)
(0.000219401 -0.00015454 0.0109881)
(0.000164136 -0.000164136 0.0109129)
(0.000101238 -0.00016979 0.0108646)
(3.41676e-05 -0.000172541 0.010841)
(-3.41676e-05 -0.000172541 0.010841)
(-0.000101237 -0.00016979 0.0108646)
(-0.000164136 -0.000164136 0.0109129)
(-0.000219401 -0.00015454 0.0109881)
(-0.000267107 -0.000140397 0.0110928)
(0.00024933 -0.000190947 0.0111585)
(0.000206247 -0.000206247 0.0110603)
(0.00015454 -0.000219401 0.0109881)
(9.56053e-05 -0.000227331 0.0109411)
(3.22732e-05 -0.000231484 0.010918)
(-3.22731e-05 -0.000231484 0.010918)
(-9.56054e-05 -0.000227331 0.0109411)
(-0.00015454 -0.000219401 0.0109881)
(-0.000206247 -0.000206247 0.0110603)
(-0.00024933 -0.000190947 0.0111585)
(0.000240929 -0.000240929 0.0112495)
(0.000190947 -0.00024933 0.0111585)
(0.000140397 -0.000267107 0.0110928)
(8.67012e-05 -0.000275133 0.0110493)
(2.90488e-05 -0.000279865 0.011028)
(-2.90489e-05 -0.000279865 0.011028)
(-8.67015e-05 -0.000275133 0.0110493)
(-0.000140397 -0.000267107 0.0110928)
(-0.000190947 -0.00024933 0.0111585)
(-0.000240929 -0.000240929 0.0112495)
(0.000103997 0.000103997 0.0112029)
(8.36845e-05 0.000109047 0.0111782)
(6.29198e-05 0.000117804 0.0111577)
(3.91912e-05 0.000122369 0.0111431)
(1.31993e-05 0.000124972 0.0111357)
(-1.31993e-05 0.000124972 0.0111357)
(-3.91911e-05 0.000122369 0.0111431)
(-6.29197e-05 0.000117804 0.0111577)
(-8.36846e-05 0.000109047 0.0111782)
(-0.000103997 0.000103997 0.0112029)
(0.000109047 8.36846e-05 0.0111782)
(9.27766e-05 9.27767e-05 0.0111451)
(7.10279e-05 0.000100324 0.0111184)
(4.45179e-05 0.000105287 0.0110999)
(1.51318e-05 0.000107932 0.0110905)
(-1.51318e-05 0.000107932 0.0110905)
(-4.45179e-05 0.000105287 0.0110999)
(-7.10279e-05 0.000100324 0.0111184)
(-9.27766e-05 9.27766e-05 0.0111451)
(-0.000109047 8.36846e-05 0.0111782)
(0.000117804 6.29197e-05 0.0111577)
(0.000100324 7.10279e-05 0.0111184)
(7.70572e-05 7.70573e-05 0.0110873)
(4.83681e-05 8.10217e-05 0.0110659)
(1.6469e-05 8.30421e-05 0.0110551)
(-1.64689e-05 8.30422e-05 0.0110551)
(-4.83681e-05 8.10217e-05 0.0110659)
(-7.70572e-05 7.70573e-05 0.0110873)
(-0.000100324 7.10279e-05 0.0111184)
(-0.000117804 6.29198e-05 0.0111577)
(0.000122369 3.91911e-05 0.0111431)
(0.000105287 4.45179e-05 0.0110999)
(8.10217e-05 4.83681e-05 0.0110659)
(5.08939e-05 5.08939e-05 0.0110428)
(1.73414e-05 5.21688e-05 0.0110311)
(-1.73414e-05 5.21688e-05 0.0110311)
(-5.08939e-05 5.08939e-05 0.0110428)
(-8.10217e-05 4.83681e-05 0.0110659)
(-0.000105287 4.45179e-05 0.0110999)
(-0.000122369 3.91911e-05 0.0111431)
(0.000124972 1.31994e-05 0.0111357)
(0.000107932 1.51317e-05 0.0110905)
(8.30421e-05 1.6469e-05 0.0110551)
(5.21687e-05 1.73414e-05 0.0110311)
(1.77785e-05 1.77785e-05 0.0110189)
(-1.77784e-05 1.77785e-05 0.0110189)
(-5.21687e-05 1.73414e-05 0.0110311)
(-8.30421e-05 1.6469e-05 0.0110551)
(-0.000107932 1.51318e-05 0.0110905)
(-0.000124972 1.31994e-05 0.0111357)
(0.000124972 -1.31993e-05 0.0111357)
(0.000107932 -1.51318e-05 0.0110905)
(8.30421e-05 -1.64689e-05 0.0110551)
(5.21687e-05 -1.73414e-05 0.0110311)
(1.77785e-05 -1.77784e-05 0.0110189)
(-1.77784e-05 -1.77784e-05 0.0110189)
(-5.21687e-05 -1.73414e-05 0.0110311)
(-8.30421e-05 -1.64689e-05 0.0110551)
(-0.000107932 -1.51317e-05 0.0110905)
(-0.000124972 -1.31994e-05 0.0111357)
(0.000122369 -3.91911e-05 0.0111431)
(0.000105287 -4.45179e-05 0.0110999)
(8.10217e-05 -4.83681e-05 0.0110659)
(5.08939e-05 -5.08939e-05 0.0110428)
(1.73414e-05 -5.21687e-05 0.0110311)
(-1.73414e-05 -5.21687e-05 0.0110311)
(-5.08938e-05 -5.08939e-05 0.0110428)
(-8.10217e-05 -4.83681e-05 0.0110659)
(-0.000105287 -4.4518e-05 0.0110999)
(-0.000122369 -3.91913e-05 0.0111431)
(0.000117804 -6.29198e-05 0.0111577)
(0.000100324 -7.10279e-05 0.0111184)
(7.70573e-05 -7.70573e-05 0.0110873)
(4.83681e-05 -8.10217e-05 0.0110659)
(1.6469e-05 -8.30421e-05 0.0110551)
(-1.64689e-05 -8.30421e-05 0.0110551)
(-4.83681e-05 -8.10217e-05 0.0110659)
(-7.70573e-05 -7.70573e-05 0.0110873)
(-0.000100324 -7.10281e-05 0.0111184)
(-0.000117804 -6.29198e-05 0.0111577)
(0.000109047 -8.36846e-05 0.0111782)
(9.27767e-05 -9.27767e-05 0.0111451)
(7.10279e-05 -0.000100324 0.0111184)
(4.45179e-05 -0.000105287 0.0110999)
(1.51318e-05 -0.000107932 0.0110905)
(-1.51318e-05 -0.000107932 0.0110905)
(-4.4518e-05 -0.000105287 0.0110999)
(-7.10281e-05 -0.000100324 0.0111184)
(-9.27766e-05 -9.27766e-05 0.0111451)
(-0.000109047 -8.36844e-05 0.0111782)
(0.000103997 -0.000103997 0.0112029)
(8.36846e-05 -0.000109047 0.0111782)
(6.29198e-05 -0.000117804 0.0111577)
(3.91912e-05 -0.000122369 0.0111431)
(1.31994e-05 -0.000124972 0.0111357)
(-1.31994e-05 -0.000124972 0.0111357)
(-3.91912e-05 -0.000122369 0.0111431)
(-6.29198e-05 -0.000117804 0.0111577)
(-8.36844e-05 -0.000109047 0.0111782)
(-0.000103997 -0.000103997 0.0112029)
(3.72142e-05 3.72144e-05 0.0112119)
(3.10861e-05 4.12114e-05 0.0112037)
(2.42762e-05 4.60001e-05 0.0111953)
(1.54216e-05 4.87926e-05 0.0111891)
(5.24764e-06 5.03053e-05 0.0111859)
(-5.24761e-06 5.03053e-05 0.0111859)
(-1.54215e-05 4.87926e-05 0.0111891)
(-2.42761e-05 4.60001e-05 0.0111953)
(-3.1086e-05 4.12112e-05 0.0112037)
(-3.72143e-05 3.72141e-05 0.0112119)
(4.12114e-05 3.10861e-05 0.0112037)
(3.65807e-05 3.65808e-05 0.0111902)
(2.89573e-05 4.10239e-05 0.0111786)
(1.85096e-05 4.40023e-05 0.0111703)
(6.35222e-06 4.5561e-05 0.0111661)
(-6.35222e-06 4.5561e-05 0.0111661)
(-1.85097e-05 4.40023e-05 0.0111703)
(-2.89574e-05 4.10238e-05 0.0111786)
(-3.65806e-05 3.65807e-05 0.0111902)
(-4.12111e-05 3.1086e-05 0.0112037)
(4.60001e-05 2.42762e-05 0.0111953)
(4.10238e-05 2.89574e-05 0.0111786)
(3.25347e-05 3.25347e-05 0.0111647)
(2.08024e-05 3.49237e-05 0.0111548)
(7.14596e-06 3.61404e-05 0.0111498)
(-7.14594e-06 3.61404e-05 0.0111498)
(-2.08024e-05 3.49237e-05 0.0111548)
(-3.25347e-05 3.25348e-05 0.0111647)
(-4.10238e-05 2.89575e-05 0.0111786)
(-4.6e-05 2.42762e-05 0.0111953)
(4.87927e-05 1.54215e-05 0.0111891)
(4.40023e-05 1.85096e-05 0.0111703)
(3.49237e-05 2.08024e-05 0.0111548)
(2.23391e-05 2.23391e-05 0.0111439)
(7.67837e-06 2.31206e-05 0.0111383)
(-7.67834e-06 2.31206e-05 0.0111383)
(-2.23391e-05 2.23391e-05 0.0111439)
(-3.49237e-05 2.08024e-05 0.0111548)
(-4.40023e-05 1.85097e-05 0.0111703)
(-4.87926e-05 1.54215e-05 0.0111891)
(5.03053e-05 5.24763e-06 0.0111859)
(4.5561e-05 6.3522e-06 0.0111661)
(3.61404e-05 7.14596e-06 0.0111498)
(2.31205e-05 7.67838e-06 0.0111383)
(7.94817e-06 7.94817e-06 0.0111324)
(-7.94812e-06 7.94817e-06 0.0111324)
(-2.31205e-05 7.67839e-06 0.0111383)
(-3.61404e-05 7.14599e-06 0.0111498)
(-4.5561e-05 6.35225e-06 0.0111661)
(-5.03053e-05 5.24768e-06 0.0111859)
(5.03053e-05 -5.24762e-06 0.0111859)
(4.5561e-05 -6.35221e-06 0.0111661)
(3.61404e-05 -7.14594e-06 0.0111498)
(2.31205e-05 -7.67834e-06 0.0111383)
(7.94817e-06 -7.94812e-06 0.0111324)
(-7.94812e-06 -7.94812e-06 0.0111324)
(-2.31205e-05 -7.67834e-06 0.0111383)
(-3.61404e-05 -7.14592e-06 0.0111498)
(-4.5561e-05 -6.35221e-06 0.0111661)
(-5.03053e-05 -5.24766e-06 0.0111859)
(4.87927e-05 -1.54215e-05 0.0111891)
(4.40023e-05 -1.85097e-05 0.0111703)
(3.49237e-05 -2.08024e-05 0.0111548)
(2.23391e-05 -2.23391e-05 0.0111439)
(7.67839e-06 -2.31205e-05 0.0111383)
(-7.67835e-06 -2.31205e-05 0.0111383)
(-2.2339e-05 -2.23391e-05 0.0111439)
(-3.49237e-05 -2.08024e-05 0.0111548)
(-4.40024e-05 -1.85097e-05 0.0111703)
(-4.87926e-05 -1.54216e-05 0.0111891)
(4.60001e-05 -2.42761e-05 0.0111953)
(4.10238e-05 -2.89574e-05 0.0111786)
(3.25348e-05 -3.25347e-05 0.0111647)
(2.08024e-05 -3.49237e-05 0.0111548)
(7.14599e-06 -3.61404e-05 0.0111498)
(-7.14593e-06 -3.61404e-05 0.0111498)
(-2.08024e-05 -3.49237e-05 0.0111548)
(-3.25348e-05 -3.25348e-05 0.0111647)
(-4.10239e-05 -2.89576e-05 0.0111786)
(-4.6e-05 -2.42761e-05 0.0111953)
(4.12112e-05 -3.10861e-05 0.0112037)
(3.65807e-05 -3.65807e-05 0.0111902)
(2.89575e-05 -4.10238e-05 0.0111786)
(1.85096e-05 -4.40023e-05 0.0111703)
(6.35223e-06 -4.5561e-05 0.0111661)
(-6.35221e-06 -4.5561e-05 0.0111661)
(-1.85097e-05 -4.40023e-05 0.0111703)
(-2.89576e-05 -4.10239e-05 0.0111786)
(-3.65807e-05 -3.65807e-05 0.0111902)
(-4.12112e-05 -3.1086e-05 0.0112037)
(3.72143e-05 -3.72143e-05 0.0112119)
(3.10861e-05 -4.12112e-05 0.0112037)
(2.42762e-05 -4.60001e-05 0.0111953)
(1.54215e-05 -4.87926e-05 0.0111891)
(5.24764e-06 -5.03053e-05 0.0111859)
(-5.24763e-06 -5.03053e-05 0.0111859)
(-1.54216e-05 -4.87926e-05 0.0111891)
(-2.42762e-05 -4.60001e-05 0.0111953)
(-3.10859e-05 -4.12112e-05 0.0112037)
(-3.72143e-05 -3.72143e-05 0.0112119)
(1.27099e-05 1.271e-05 0.0112113)
(1.08449e-05 1.45936e-05 0.0112102)
(8.66911e-06 1.66794e-05 0.0112074)
(5.57289e-06 1.7987e-05 0.0112051)
(1.9093e-06 1.86925e-05 0.0112039)
(-1.9093e-06 1.86925e-05 0.0112039)
(-5.57287e-06 1.79871e-05 0.0112051)
(-8.66904e-06 1.66795e-05 0.0112074)
(-1.08449e-05 1.45937e-05 0.0112102)
(-1.271e-05 1.271e-05 0.0112113)
(1.45936e-05 1.0845e-05 0.0112102)
(1.33418e-05 1.33418e-05 0.0112055)
(1.08214e-05 1.54156e-05 0.0112009)
(7.0214e-06 1.68576e-05 0.0111975)
(2.42808e-06 1.7618e-05 0.0111957)
(-2.42807e-06 1.7618e-05 0.0111957)
(-7.02133e-06 1.68576e-05 0.0111975)
(-1.08214e-05 1.54157e-05 0.0112009)
(-1.33419e-05 1.33419e-05 0.0112055)
(-1.45936e-05 1.0845e-05 0.0112102)
(1.66794e-05 8.6691e-06 0.0112074)
(1.54156e-05 1.08215e-05 0.0112009)
(1.25512e-05 1.25512e-05 0.0111951)
(8.15545e-06 1.37488e-05 0.0111908)
(2.82427e-06 1.43685e-05 0.0111886)
(-2.82423e-06 1.43685e-05 0.0111886)
(-8.1554e-06 1.37488e-05 0.0111908)
(-1.25511e-05 1.25512e-05 0.0111951)
(-1.54156e-05 1.08215e-05 0.0112009)
(-1.66794e-05 8.66915e-06 0.0112074)
(1.79871e-05 5.57286e-06 0.0112051)
(1.68576e-05 7.02141e-06 0.0111975)
(1.37487e-05 8.15548e-06 0.0111908)
(8.94523e-06 8.94526e-06 0.011186)
(3.1006e-06 9.35368e-06 0.0111835)
(-3.10055e-06 9.35368e-06 0.0111835)
(-8.9452e-06 8.94526e-06 0.011186)
(-1.37487e-05 8.15546e-06 0.0111908)
(-1.68576e-05 7.02138e-06 0.0111975)
(-1.79871e-05 5.57288e-06 0.0112051)
(1.86925e-05 1.90928e-06 0.0112039)
(1.7618e-05 2.42808e-06 0.0111957)
(1.43684e-05 2.82429e-06 0.0111886)
(9.35366e-06 3.10061e-06 0.0111835)
(3.24307e-06 3.24308e-06 0.0111808)
(-3.24303e-06 3.24308e-06 0.0111808)
(-9.35362e-06 3.10059e-06 0.0111835)
(-1.43684e-05 2.82429e-06 0.0111886)
(-1.7618e-05 2.4281e-06 0.0111957)
(-1.86925e-05 1.90933e-06 0.0112039)
(1.86925e-05 -1.90928e-06 0.0112039)
(1.7618e-05 -2.42805e-06 0.0111957)
(1.43685e-05 -2.82423e-06 0.0111886)
(9.35366e-06 -3.10055e-06 0.0111835)
(3.24307e-06 -3.24302e-06 0.0111808)
(-3.24304e-06 -3.24303e-06 0.0111808)
(-9.35362e-06 -3.10056e-06 0.0111835)
(-1.43684e-05 -2.82424e-06 0.0111886)
(-1.7618e-05 -2.42808e-06 0.0111957)
(-1.86925e-05 -1.90932e-06 0.0112039)
(1.79871e-05 -5.57288e-06 0.0112051)
(1.68576e-05 -7.02133e-06 0.0111975)
(1.37488e-05 -8.1554e-06 0.0111908)
(8.94524e-06 -8.9452e-06 0.011186)
(3.10059e-06 -9.35362e-06 0.0111835)
(-3.10057e-06 -9.35362e-06 0.0111835)
(-8.9452e-06 -8.9452e-06 0.011186)
(-1.37488e-05 -8.15542e-06 0.0111908)
(-1.68576e-05 -7.02142e-06 0.0111975)
(-1.79871e-05 -5.57294e-06 0.0112051)
(1.66795e-05 -8.66911e-06 0.0112074)
(1.54157e-05 -1.08215e-05 0.0112009)
(1.25512e-05 -1.25511e-05 0.0111951)
(8.15544e-06 -1.37487e-05 0.0111908)
(2.82428e-06 -1.43684e-05 0.0111886)
(-2.82424e-06 -1.43684e-05 0.0111886)
(-8.15542e-06 -1.37488e-05 0.0111908)
(-1.25512e-05 -1.25512e-05 0.0111951)
(-1.54157e-05 -1.08216e-05 0.0112009)
(-1.66794e-05 -8.66914e-06 0.0112074)
(1.45937e-05 -1.0845e-05 0.0112102)
(1.33419e-05 -1.3342e-05 0.0112055)
(1.08215e-05 -1.54157e-05 0.0112009)
(7.02134e-06 -1.68576e-05 0.0111975)
(2.42808e-06 -1.7618e-05 0.0111957)
(-2.42808e-06 -1.7618e-05 0.0111957)
(-7.02141e-06 -1.68576e-05 0.0111975)
(-1.08216e-05 -1.54157e-05 0.0112009)
(-1.33419e-05 -1.33419e-05 0.0112055)
(-1.45935e-05 -1.08449e-05 0.0112102)
(1.271e-05 -1.271e-05 0.0112113)
(1.0845e-05 -1.45936e-05 0.0112102)
(8.66918e-06 -1.66795e-05 0.0112074)
(5.57291e-06 -1.79871e-05 0.0112051)
(1.90934e-06 -1.86925e-05 0.0112039)
(-1.90931e-06 -1.86925e-05 0.0112039)
(-5.57294e-06 -1.79871e-05 0.0112051)
(-8.6692e-06 -1.66794e-05 0.0112074)
(-1.08449e-05 -1.45935e-05 0.0112102)
(-1.271e-05 -1.27099e-05 0.0112113)
(4.4949e-06 4.49504e-06 0.0112091)
(3.87153e-06 5.23671e-06 0.0112106)
(3.13054e-06 6.04554e-06 0.0112101)
(2.0231e-06 6.57123e-06 0.0112093)
(6.95533e-07 6.85529e-06 0.0112089)
(-6.9555e-07 6.85528e-06 0.0112089)
(-2.02303e-06 6.57122e-06 0.0112093)
(-3.13043e-06 6.04553e-06 0.0112101)
(-3.87153e-06 5.23672e-06 0.0112106)
(-4.49491e-06 4.49502e-06 0.0112091)
(5.2367e-06 3.87156e-06 0.0112106)
(4.86253e-06 4.86257e-06 0.0112095)
(3.99721e-06 5.70349e-06 0.0112078)
(2.6152e-06 6.30316e-06 0.0112065)
(9.08349e-07 6.62226e-06 0.0112059)
(-9.08382e-07 6.62228e-06 0.0112059)
(-2.61523e-06 6.30317e-06 0.0112065)
(-3.9972e-06 5.70347e-06 0.0112078)
(-4.86239e-06 4.8625e-06 0.0112095)
(-5.23657e-06 3.87159e-06 0.0112106)
(6.04555e-06 3.13052e-06 0.0112101)
(5.70346e-06 3.99723e-06 0.0112078)
(4.71801e-06 4.71802e-06 0.0112056)
(3.0968e-06 5.23081e-06 0.0112039)
(1.07803e-06 5.49987e-06 0.0112031)
(-1.07801e-06 5.49988e-06 0.0112031)
(-3.09677e-06 5.23086e-06 0.0112039)
(-4.71797e-06 4.71808e-06 0.0112056)
(-5.70339e-06 3.99729e-06 0.0112078)
(-6.04553e-06 3.13045e-06 0.0112101)
(6.57125e-06 2.02309e-06 0.0112093)
(6.30316e-06 2.61524e-06 0.0112065)
(5.23079e-06 3.09682e-06 0.0112039)
(3.44199e-06 3.44201e-06 0.011202)
(1.1999e-06 3.62317e-06 0.011201)
(-1.19986e-06 3.62318e-06 0.011201)
(-3.44197e-06 3.44202e-06 0.011202)
(-5.23077e-06 3.09682e-06 0.0112039)
(-6.30314e-06 2.61524e-06 0.0112065)
(-6.57123e-06 2.02303e-06 0.0112093)
(6.85531e-06 6.95545e-07 0.0112089)
(6.62226e-06 9.08367e-07 0.0112059)
(5.49983e-06 1.07803e-06 0.0112031)
(3.62315e-06 1.19991e-06 0.011201)
(1.26372e-06 1.26373e-06 0.0111999)
(-1.26368e-06 1.26373e-06 0.0111999)
(-3.62313e-06 1.19991e-06 0.011201)
(-5.49981e-06 1.07805e-06 0.0112031)
(-6.62224e-06 9.08383e-07 0.0112059)
(-6.8553e-06 6.95563e-07 0.0112089)
(6.85531e-06 -6.9557e-07 0.0112089)
(6.62227e-06 -9.08353e-07 0.0112059)
(5.49984e-06 -1.07799e-06 0.0112031)
(3.62316e-06 -1.19985e-06 0.011201)
(1.26372e-06 -1.26367e-06 0.0111999)
(-1.26368e-06 -1.26367e-06 0.0111999)
(-3.62312e-06 -1.19986e-06 0.011201)
(-5.49982e-06 -1.07799e-06 0.0112031)
(-6.62225e-06 -9.08358e-07 0.0112059)
(-6.85531e-06 -6.95552e-07 0.0112089)
(6.57129e-06 -2.02308e-06 0.0112093)
(6.3032e-06 -2.61519e-06 0.0112065)
(5.23081e-06 -3.09675e-06 0.0112039)
(3.44199e-06 -3.44195e-06 0.011202)
(1.1999e-06 -3.62313e-06 0.011201)
(-1.19987e-06 -3.62313e-06 0.011201)
(-3.44196e-06 -3.44197e-06 0.011202)
(-5.23078e-06 -3.09677e-06 0.0112039)
(-6.30317e-06 -2.61524e-06 0.0112065)
(-6.57126e-06 -2.02309e-06 0.0112093)
(6.04562e-06 -3.13042e-06 0.0112101)
(5.70353e-06 -3.99727e-06 0.0112078)
(4.71802e-06 -4.71799e-06 0.0112056)
(3.09679e-06 -5.23079e-06 0.0112039)
(1.07803e-06 -5.49984e-06 0.0112031)
(-1.078e-06 -5.49984e-06 0.0112031)
(-3.09676e-06 -5.23081e-06 0.0112039)
(-4.71803e-06 -4.71804e-06 0.0112056)
(-5.70351e-06 -3.99738e-06 0.0112078)
(-6.04554e-06 -3.1305e-06 0.0112101)
(5.23667e-06 -3.87149e-06 0.0112106)
(4.86251e-06 -4.86257e-06 0.0112095)
(3.99728e-06 -5.70351e-06 0.0112078)
(2.61521e-06 -6.30318e-06 0.0112065)
(9.08365e-07 -6.62226e-06 0.0112059)
(-9.08362e-07 -6.62227e-06 0.0112059)
(-2.61522e-06 -6.30319e-06 0.0112065)
(-3.99736e-06 -5.70353e-06 0.0112078)
(-4.86251e-06 -4.86257e-06 0.0112095)
(-5.23657e-06 -3.87152e-06 0.0112106)
(4.49489e-06 -4.49494e-06 0.0112091)
(3.8715e-06 -5.23663e-06 0.0112106)
(3.13053e-06 -6.04556e-06 0.0112101)
(2.02309e-06 -6.57123e-06 0.0112093)
(6.95562e-07 -6.8553e-06 0.0112089)
(-6.95558e-07 -6.85531e-06 0.0112089)
(-2.02308e-06 -6.57125e-06 0.0112093)
(-3.13054e-06 -6.04558e-06 0.0112101)
(-3.8715e-06 -5.2366e-06 0.0112106)
(-4.49487e-06 -4.49492e-06 0.0112091)
(1.60854e-06 1.60849e-06 0.0112082)
(1.39506e-06 1.89329e-06 0.0112106)
(1.1371e-06 2.20052e-06 0.0112108)
(7.3767e-07 2.40403e-06 0.0112106)
(2.54236e-07 2.51399e-06 0.0112105)
(-2.54302e-07 2.51399e-06 0.0112105)
(-7.37696e-07 2.40406e-06 0.0112106)
(-1.13708e-06 2.20065e-06 0.0112108)
(-1.39499e-06 1.89344e-06 0.0112106)
(-1.60844e-06 1.60867e-06 0.0112082)
(1.89328e-06 1.39507e-06 0.0112106)
(1.77589e-06 1.77587e-06 0.0112107)
(1.47302e-06 2.1033e-06 0.0112101)
(9.69119e-07 2.34014e-06 0.0112097)
(3.37597e-07 2.46681e-06 0.0112094)
(-3.37602e-07 2.46684e-06 0.0112094)
(-9.69067e-07 2.34021e-06 0.0112097)
(-1.47295e-06 2.10344e-06 0.0112101)
(-1.77586e-06 1.77606e-06 0.0112107)
(-1.89335e-06 1.3951e-06 0.0112106)
(2.20044e-06 1.13711e-06 0.0112108)
(2.10329e-06 1.47301e-06 0.0112101)
(1.75805e-06 1.75803e-06 0.0112093)
(1.16164e-06 1.96402e-06 0.0112087)
(4.05775e-07 2.07302e-06 0.0112083)
(-4.05723e-07 2.07304e-06 0.0112083)
(-1.16155e-06 1.96406e-06 0.0112087)
(-1.75791e-06 1.75804e-06 0.0112093)
(-2.10334e-06 1.47305e-06 0.0112101)
(-2.20061e-06 1.13705e-06 0.0112108)
(2.40398e-06 7.37693e-07 0.0112106)
(2.34013e-06 9.69176e-07 0.0112097)
(1.96403e-06 1.16166e-06 0.0112087)
(1.30202e-06 1.30203e-06 0.0112079)
(4.55626e-07 1.3764e-06 0.0112075)
(-4.55567e-07 1.3764e-06 0.0112075)
(-1.30197e-06 1.30203e-06 0.0112079)
(-1.96396e-06 1.1616e-06 0.0112087)
(-2.34015e-06 9.69057e-07 0.0112097)
(-2.40406e-06 7.37684e-07 0.0112106)
(2.51399e-06 2.54245e-07 0.0112105)
(2.46679e-06 3.3763e-07 0.0112094)
(2.07299e-06 4.05786e-07 0.0112083)
(1.37638e-06 4.55634e-07 0.0112075)
(4.81985e-07 4.81995e-07 0.0112071)
(-4.81935e-07 4.81987e-07 0.0112071)
(-1.37635e-06 4.55614e-07 0.0112075)
(-2.07297e-06 4.05758e-07 0.0112083)
(-2.46679e-06 3.37581e-07 0.0112094)
(-2.514e-06 2.54292e-07 0.0112105)
(2.51398e-06 -2.54316e-07 0.0112105)
(2.46683e-06 -3.37597e-07 0.0112094)
(2.07302e-06 -4.05719e-07 0.0112083)
(1.37639e-06 -4.55564e-07 0.0112075)
(4.81978e-07 -4.81932e-07 0.0112071)
(-4.81947e-07 -4.81941e-07 0.0112071)
(-1.37635e-06 -4.55591e-07 0.0112075)
(-2.07298e-06 -4.05746e-07 0.0112083)
(-2.46678e-06 -3.3762e-07 0.0112094)
(-2.514e-06 -2.54272e-07 0.0112105)
(2.40406e-06 -7.37662e-07 0.0112106)
(2.34021e-06 -9.69058e-07 0.0112097)
(1.96404e-06 -1.16155e-06 0.0112087)
(1.30201e-06 -1.30199e-06 0.0112079)
(4.55608e-07 -1.37635e-06 0.0112075)
(-4.55593e-07 -1.37635e-06 0.0112075)
(-1.30199e-06 -1.30199e-06 0.0112079)
(-1.96401e-06 -1.1616e-06 0.0112087)
(-2.34015e-06 -9.69141e-07 0.0112097)
(-2.40403e-06 -7.37693e-07 0.0112106)
(2.20064e-06 -1.13702e-06 0.0112108)
(2.10339e-06 -1.47297e-06 0.0112101)
(1.758e-06 -1.75795e-06 0.0112093)
(1.16159e-06 -1.964e-06 0.0112087)
(4.0577e-07 -2.07298e-06 0.0112083)
(-4.05741e-07 -2.07298e-06 0.0112083)
(-1.1616e-06 -1.96402e-06 0.0112087)
(-1.75804e-06 -1.75805e-06 0.0112093)
(-2.10334e-06 -1.47312e-06 0.0112101)
(-2.20052e-06 -1.13709e-06 0.0112108)
(1.89351e-06 -1.39511e-06 0.0112106)
(1.77597e-06 -1.776e-06 0.0112107)
(1.473e-06 -2.1034e-06 0.0112101)
(9.6907e-07 -2.34016e-06 0.0112097)
(3.37614e-07 -2.46678e-06 0.0112094)
(-3.37619e-07 -2.46679e-06 0.0112094)
(-9.69149e-07 -2.34014e-06 0.0112097)
(-1.47311e-06 -2.10332e-06 0.0112101)
(-1.77586e-06 -1.77587e-06 0.0112107)
(-1.89322e-06 -1.39505e-06 0.0112106)
(1.60864e-06 -1.60858e-06 0.0112082)
(1.39508e-06 -1.89342e-06 0.0112106)
(1.13714e-06 -2.20062e-06 0.0112108)
(7.37751e-07 -2.40404e-06 0.0112106)
(2.54311e-07 -2.514e-06 0.0112105)
(-2.54276e-07 -2.514e-06 0.0112105)
(-7.37671e-07 -2.40401e-06 0.0112106)
(-1.13708e-06 -2.20051e-06 0.0112108)
(-1.39507e-06 -1.89323e-06 0.0112106)
(-1.6085e-06 -1.60848e-06 0.0112082)
(5.78325e-07 5.78216e-07 0.0112078)
(5.03692e-07 6.85303e-07 0.0112106)
(4.12582e-07 8.00286e-07 0.011211)
(2.68311e-07 8.77398e-07 0.011211)
(9.26136e-08 9.191e-07 0.011211)
(-9.26564e-08 9.1909e-07 0.011211)
(-2.68285e-07 8.77369e-07 0.011211)
(-4.12524e-07 8.00268e-07 0.011211)
(-5.03664e-07 6.85402e-07 0.0112106)
(-5.7823e-07 5.78435e-07 0.0112078)
(6.85289e-07 5.03653e-07 0.0112106)
(6.47036e-07 6.46999e-07 0.0112111)
(5.39912e-07 7.71551e-07 0.0112109)
(3.56566e-07 8.62526e-07 0.0112108)
(1.24457e-07 9.11381e-07 0.0112107)
(-1.24481e-07 9.11398e-07 0.0112107)
(-3.56569e-07 8.62556e-07 0.0112108)
(-5.39855e-07 7.7157e-07 0.0112109)
(-6.46943e-07 6.47068e-07 0.0112111)
(-6.853e-07 5.03726e-07 0.0112106)
(8.00232e-07 4.12588e-07 0.011211)
(7.71576e-07 5.39909e-07 0.0112109)
(6.49501e-07 6.49491e-07 0.0112106)
(4.3114e-07 7.29557e-07 0.0112104)
(1.50963e-07 7.72187e-07 0.0112103)
(-1.50954e-07 7.72198e-07 0.0112103)
(-4.31109e-07 7.29596e-07 0.0112104)
(-6.49402e-07 6.49518e-07 0.0112106)
(-7.71504e-07 5.39925e-07 0.0112109)
(-8.00309e-07 4.12561e-07 0.011211)
(8.77379e-07 2.6834e-07 0.011211)
(8.62541e-07 3.5659e-07 0.0112108)
(7.2956e-07 4.31143e-07 0.0112104)
(4.86181e-07 4.86186e-07 0.0112101)
(1.70594e-07 5.15545e-07 0.01121)
(-1.70564e-07 5.15552e-07 0.01121)
(-4.86161e-07 4.86209e-07 0.0112101)
(-7.2952e-07 4.31144e-07 0.0112104)
(-8.62498e-07 3.56531e-07 0.0112108)
(-8.77387e-07 2.6829e-07 0.011211)
(9.19115e-07 9.26223e-08 0.011211)
(9.1138e-07 1.24458e-07 0.0112107)
(7.72179e-07 1.50963e-07 0.0112103)
(5.15542e-07 1.70599e-07 0.01121)
(1.81051e-07 1.81054e-07 0.0112098)
(-1.81011e-07 1.81052e-07 0.0112098)
(-5.15513e-07 1.70602e-07 0.01121)
(-7.72156e-07 1.50981e-07 0.0112103)
(-9.11352e-07 1.24464e-07 0.0112107)
(-9.19095e-07 9.26408e-08 0.011211)
(9.19097e-07 -9.26575e-08 0.011211)
(9.11403e-07 -1.24457e-07 0.0112107)
(7.72204e-07 -1.50932e-07 0.0112103)
(5.1555e-07 -1.70558e-07 0.01121)
(1.81047e-07 -1.8101e-07 0.0112098)
(-1.81015e-07 -1.81015e-07 0.0112098)
(-5.1551e-07 -1.70568e-07 0.01121)
(-7.7216e-07 -1.50943e-07 0.0112103)
(-9.11359e-07 -1.24471e-07 0.0112107)
(-9.19101e-07 -9.26263e-08 0.011211)
(8.77405e-07 -2.68276e-07 0.011211)
(8.62573e-07 -3.56507e-07 0.0112108)
(7.29571e-07 -4.31097e-07 0.0112104)
(4.86185e-07 -4.86168e-07 0.0112101)
(1.70594e-07 -5.15514e-07 0.01121)
(-1.70569e-07 -5.15517e-07 0.01121)
(-4.86162e-07 -4.86174e-07 0.0112101)
(-7.29551e-07 -4.31119e-07 0.0112104)
(-8.62508e-07 -3.56565e-07 0.0112108)
(-8.77369e-07 -2.68263e-07 0.011211)
(8.00344e-07 -4.12509e-07 0.011211)
(7.7158e-07 -5.39913e-07 0.0112109)
(6.4946e-07 -6.49484e-07 0.0112106)
(4.31132e-07 -7.29542e-07 0.0112104)
(1.50976e-07 -7.72156e-07 0.0112103)
(-1.50954e-07 -7.72172e-07 0.0112103)
(-4.31112e-07 -7.29568e-07 0.0112104)
(-6.49468e-07 -6.49478e-07 0.0112106)
(-7.71501e-07 -5.39907e-07 0.0112109)
(-8.00253e-07 -4.12537e-07 0.011211)
(6.85319e-07 -5.03658e-07 0.0112106)
(6.46988e-07 -6.47032e-07 0.0112111)
(5.39935e-07 -7.7152e-07 0.0112109)
(3.56593e-07 -8.62479e-07 0.0112108)
(1.24466e-07 -9.11343e-07 0.0112107)
(-1.24489e-07 -9.11355e-07 0.0112107)
(-3.5655e-07 -8.62506e-07 0.0112108)
(-5.39893e-07 -7.71534e-07 0.0112109)
(-6.46963e-07 -6.47002e-07 0.0112111)
(-6.8528e-07 -5.03728e-07 0.0112106)
(5.7824e-07 -5.78241e-07 0.0112078)
(5.03696e-07 -6.85217e-07 0.0112106)
(4.12614e-07 -8.00212e-07 0.011211)