/*--------------------------------*- C++ -*----------------------------------*\
| =========                 |                                                 |
| \\      /  F ield         | OpenFOAM: The Open Source CFD Toolbox           |
|  \\    /   O peration     | Version:  2412                                  |
|   \\  /    A nd           | Website:  www.openfoam.com                      |
|    \\/     M anipulation  |                                                 |
\*---------------------------------------------------------------------------*/
FoamFile
{
    version     2.0;
    format      ascii;
    arch        "LSB;label=32;scalar=64";
    class       surfaceScalarField;
    location    "0.3";
    object      phi;
}
// * * * * * * * * * * * * * * * * * * * * * * * * * * * * * * * * * * * * * //

dimensions      [0 3 -1 0 0 0 0];

oriented        oriented;

internalField   nonuniform List<scalar> 
43700
(
3.50554e-05
3.50554e-05
5.67904e-05
-3.99497e-05
-3.99497e-05
2.79896e-05
3.49061e-05
6.361e-05
-4.0512e-05
1.93663e-05
3.43001e-05
6.84081e-05
-4.01419e-05
9.87196e-06
3.37123e-05
7.14682e-05
-3.97149e-05
-9.63117e-13
3.33716e-05
7.29484e-05
-3.94552e-05
-9.87196e-06
3.33716e-05
7.29484e-05
-3.94552e-05
-1.93663e-05
3.37124e-05
7.14682e-05
-3.97149e-05
-2.79896e-05
3.43001e-05
6.84081e-05
-4.01419e-05
-3.50554e-05
3.49061e-05
6.361e-05
-4.0512e-05
3.50554e-05
5.67904e-05
-3.99497e-05
-3.99497e-05
3.49061e-05
2.79896e-05
6.361e-05
-4.0512e-05
2.72463e-05
2.72463e-05
6.99038e-05
1.8527e-05
2.64289e-05
7.39595e-05
9.3411e-06
2.57681e-05
7.63798e-05
1.18044e-12
2.54048e-05
7.75051e-05
-9.3411e-06
2.54048e-05
7.75051e-05
-1.8527e-05
2.57681e-05
7.63798e-05
-2.72463e-05
2.64289e-05
7.39595e-05
-3.49061e-05
2.72463e-05
6.99038e-05
2.79896e-05
6.361e-05
-4.0512e-05
3.43001e-05
1.93664e-05
6.84081e-05
-4.01419e-05
2.64289e-05
1.8527e-05
7.39595e-05
1.77621e-05
1.77621e-05
7.7321e-05
8.88607e-06
1.71912e-05
7.92091e-05
1.98234e-12
1.68879e-05
8.00508e-05
-8.88607e-06
1.68879e-05
8.00508e-05
-1.77621e-05
1.71912e-05
7.92091e-05
-2.64289e-05
1.77621e-05
7.7321e-05
-3.43001e-05
1.8527e-05
7.39595e-05
1.93663e-05
6.84081e-05
-4.01419e-05
3.37123e-05
9.87197e-06
7.14682e-05
-3.97149e-05
2.57681e-05
9.3411e-06
7.63798e-05
1.71912e-05
8.88607e-06
7.92091e-05
8.55751e-06
8.55751e-06
8.07177e-05
2.04912e-12
8.38583e-06
8.13638e-05
-8.55751e-06
8.38583e-06
8.13638e-05
-1.71912e-05
8.55751e-06
8.07177e-05
-2.57681e-05
8.88607e-06
7.92091e-05
-3.37124e-05
9.3411e-06
7.63798e-05
9.87197e-06
7.14682e-05
-3.97149e-05
3.33716e-05
-1.62849e-12
7.29484e-05
-3.94552e-05
2.54048e-05
-1.3248e-12
7.75051e-05
1.68879e-05
-2.00176e-12
8.00508e-05
8.38583e-06
-4.72105e-13
8.13638e-05
1.51922e-12
9.99571e-13
8.19109e-05
-8.38583e-06
6.6584e-13
8.19109e-05
-1.68879e-05
-1.12961e-12
8.13638e-05
-2.54048e-05
-3.36969e-12
8.00508e-05
-3.33716e-05
-3.66755e-12
7.75051e-05
-2.53978e-12
7.29484e-05
-3.94552e-05
3.33716e-05
-9.87197e-06
7.29484e-05
-3.94552e-05
2.54048e-05
-9.3411e-06
7.75051e-05
1.68879e-05
-8.88608e-06
8.00508e-05
8.38583e-06
-8.55752e-06
8.13638e-05
1.23772e-12
-8.38583e-06
8.19109e-05
-8.38583e-06
-8.38583e-06
8.19109e-05
-1.68879e-05
-8.55751e-06
8.13638e-05
-2.54048e-05
-8.88607e-06
8.00508e-05
-3.33716e-05
-9.3411e-06
7.75051e-05
-9.87197e-06
7.29484e-05
-3.94552e-05
3.37123e-05
-1.93664e-05
7.14682e-05
-3.97149e-05
2.57681e-05
-1.8527e-05
7.63798e-05
1.71912e-05
-1.77621e-05
7.92091e-05
8.55751e-06
-1.71912e-05
8.07177e-05
1.84612e-12
-1.68879e-05
8.13638e-05
-8.55751e-06
-1.68879e-05
8.13638e-05
-1.71912e-05
-1.71912e-05
8.07177e-05
-2.57681e-05
-1.77621e-05
7.92091e-05
-3.37123e-05
-1.8527e-05
7.63798e-05
-1.93664e-05
7.14682e-05
-3.97149e-05
3.43001e-05
-2.79896e-05
6.84081e-05
-4.01419e-05
2.64289e-05
-2.72463e-05
7.39595e-05
1.77621e-05
-2.64289e-05
7.7321e-05
8.88608e-06
-2.57681e-05
7.92091e-05
3.41244e-12
-2.54048e-05
8.00508e-05
-8.88607e-06
-2.54048e-05
8.00508e-05
-1.77621e-05
-2.57681e-05
7.92091e-05
-2.64289e-05
-2.64289e-05
7.7321e-05
-3.43001e-05
-2.72463e-05
7.39595e-05
-2.79896e-05
6.84081e-05
-4.01419e-05
3.49061e-05
-3.50554e-05
6.361e-05
-4.0512e-05
2.72463e-05
-3.49061e-05
6.99038e-05
1.8527e-05
-3.43001e-05
7.39595e-05
9.3411e-06
-3.37123e-05
7.63798e-05
2.9963e-12
-3.33716e-05
7.75051e-05
-9.3411e-06
-3.33716e-05
7.75051e-05
-1.8527e-05
-3.37123e-05
7.63798e-05
-2.72463e-05
-3.43001e-05
7.39595e-05
-3.49061e-05
-3.49061e-05
6.99038e-05
-3.50554e-05
6.361e-05
-4.0512e-05
3.50554e-05
5.67904e-05
-3.99497e-05
-3.99497e-05
2.79896e-05
6.361e-05
-4.0512e-05
1.93664e-05
6.84081e-05
-4.01419e-05
9.87197e-06
7.14682e-05
-3.97149e-05
1.914e-12
7.29484e-05
-3.94552e-05
-9.87197e-06
7.29484e-05
-3.94552e-05
-1.93664e-05
7.14682e-05
-3.97149e-05
-2.79896e-05
6.84081e-05
-4.01419e-05
-3.50554e-05
6.361e-05
-4.0512e-05
5.67904e-05
-3.99497e-05
-3.99497e-05
1.98762e-05
1.98762e-05
5.71029e-05
-2.00325e-05
-2.00325e-05
1.73632e-05
2.21649e-05
6.61817e-05
-2.22236e-05
1.27974e-05
2.37475e-05
7.30466e-05
-2.38201e-05
6.77529e-06
2.47451e-05
7.76042e-05
-2.48591e-05
-3.17482e-13
2.52218e-05
7.98656e-05
-2.53637e-05
-6.77529e-06
2.52218e-05
7.98656e-05
-2.53637e-05
-1.27974e-05
2.47451e-05
7.76042e-05
-2.48591e-05
-1.73632e-05
2.37475e-05
7.30466e-05
-2.38201e-05
-1.98762e-05
2.21649e-05
6.61817e-05
-2.22236e-05
1.98762e-05
5.71029e-05
-2.00325e-05
-2.00325e-05
2.21649e-05
1.73632e-05
6.61817e-05
-2.22236e-05
1.92434e-05
1.92434e-05
7.57469e-05
1.40667e-05
2.05089e-05
8.23748e-05
7.40169e-06
2.12803e-05
8.65096e-05
1.35963e-13
2.16425e-05
8.84861e-05
-7.40169e-06
2.16425e-05
8.84861e-05
-1.40667e-05
2.12803e-05
8.65096e-05
-1.92434e-05
2.05089e-05
8.23748e-05
-2.21649e-05
1.92434e-05
7.57469e-05
1.73632e-05
6.61817e-05
-2.22236e-05
2.37475e-05
1.27974e-05
7.30466e-05
-2.38201e-05
2.05089e-05
1.40667e-05
8.23748e-05
1.49074e-05
1.49074e-05
8.85238e-05
7.81118e-06
1.54058e-05
9.21799e-05
2.0142e-13
1.56361e-05
9.38685e-05
-7.81118e-06
1.56361e-05
9.38685e-05
-1.49074e-05
1.54058e-05
9.21799e-05
-2.05089e-05
1.49074e-05
8.85238e-05
-2.37475e-05
1.40668e-05
8.23748e-05
1.27974e-05
7.30466e-05
-2.38201e-05
2.47451e-05
6.77529e-06
7.76042e-05
-2.48591e-05
2.12803e-05
7.40169e-06
8.65096e-05
1.54058e-05
7.81118e-06
9.21799e-05
8.04889e-06
8.04889e-06
9.54316e-05
5.97416e-13
8.15735e-06
9.68914e-05
-8.04889e-06
8.15735e-06
9.68914e-05
-1.54058e-05
8.04889e-06
9.54316e-05
-2.12803e-05
7.81118e-06
9.21799e-05
-2.47451e-05
7.40169e-06
8.65096e-05
6.77529e-06
7.76042e-05
-2.48591e-05
2.52218e-05
-2.0505e-12
7.98656e-05
-2.53637e-05
2.16425e-05
-1.35344e-12
8.84861e-05
1.56361e-05
-6.28934e-13
9.38685e-05
8.15735e-06
-5.99918e-13
9.68914e-05
1.35639e-12
-1.7664e-13
9.82256e-05
-8.15735e-06
-6.44159e-13
9.82256e-05
-1.56361e-05
-4.26924e-13
9.68914e-05
-2.16425e-05
3.58332e-13
9.38685e-05
-2.52218e-05
1.27017e-12
8.84861e-05
2.02368e-12
7.98656e-05
-2.53637e-05
2.52218e-05
-6.77529e-06
7.98656e-05
-2.53637e-05
2.16425e-05
-7.40169e-06
8.84861e-05
1.56361e-05
-7.81118e-06
9.38685e-05
8.15735e-06
-8.04889e-06
9.68914e-05
8.87052e-13
-8.15735e-06
9.82256e-05
-8.15735e-06
-8.15735e-06
9.82256e-05
-1.56361e-05
-8.04889e-06
9.68914e-05
-2.16425e-05
-7.81118e-06
9.38685e-05
-2.52218e-05
-7.40169e-06
8.84861e-05
-6.77529e-06
7.98656e-05
-2.53637e-05
2.47451e-05
-1.27974e-05
7.76042e-05
-2.48591e-05
2.12803e-05
-1.40667e-05
8.65096e-05
1.54058e-05
-1.49074e-05
9.21799e-05
8.04889e-06
-1.54058e-05
9.54316e-05
1.78893e-12
-1.56361e-05
9.68914e-05
-8.04889e-06
-1.56361e-05
9.68914e-05
-1.54058e-05
-1.54058e-05
9.54316e-05
-2.12803e-05
-1.49074e-05
9.21799e-05
-2.47451e-05
-1.40667e-05
8.65096e-05
-1.27974e-05
7.76042e-05
-2.48591e-05
2.37475e-05
-1.73632e-05
7.30466e-05
-2.38201e-05
2.05089e-05
-1.92434e-05
8.23748e-05
1.49074e-05
-2.05089e-05
8.85238e-05
7.81118e-06
-2.12803e-05
9.21799e-05
1.74344e-12
-2.16425e-05
9.38685e-05
-7.81118e-06
-2.16425e-05
9.38685e-05
-1.49074e-05
-2.12803e-05
9.21799e-05
-2.05089e-05
-2.05089e-05
8.85238e-05
-2.37475e-05
-1.92434e-05
8.23748e-05
-1.73632e-05
7.30466e-05
-2.38201e-05
2.21649e-05
-1.98762e-05
6.61817e-05
-2.22236e-05
1.92434e-05
-2.21649e-05
7.57469e-05
1.40667e-05
-2.37475e-05
8.23748e-05
7.40169e-06
-2.47451e-05
8.65096e-05
1.14932e-12
-2.52218e-05
8.84861e-05
-7.40169e-06
-2.52218e-05
8.84861e-05
-1.40667e-05
-2.47451e-05
8.65096e-05
-1.92434e-05
-2.37475e-05
8.23748e-05
-2.21649e-05
-2.21649e-05
7.57469e-05
-1.98762e-05
6.61817e-05
-2.22236e-05
1.98762e-05
5.71029e-05
-2.00325e-05
-2.00325e-05
1.73632e-05
6.61817e-05
-2.22236e-05
1.27974e-05
7.30466e-05
-2.38201e-05
6.7753e-06
7.76042e-05
-2.48591e-05
1.54443e-12
7.98656e-05
-2.53637e-05
-6.77529e-06
7.98656e-05
-2.53637e-05
-1.27974e-05
7.76042e-05
-2.48591e-05
-1.73632e-05
7.30466e-05
-2.38201e-05
-1.98762e-05
6.61817e-05
-2.22236e-05
5.71029e-05
-2.00325e-05
-2.00325e-05
1.18522e-05
1.18522e-05
5.51369e-05
-1.08692e-05
-1.08692e-05
1.09851e-05
1.39502e-05
6.57001e-05
-1.26014e-05
8.42716e-06
1.54856e-05
7.40336e-05
-1.39146e-05
4.56587e-06
1.65224e-05
7.97608e-05
-1.48177e-05
8.78411e-13
1.70437e-05
8.26632e-05
-1.52754e-05
-4.56587e-06
1.70437e-05
8.26632e-05
-1.52754e-05
-8.42715e-06
1.65224e-05
7.97608e-05
-1.48177e-05
-1.09851e-05
1.54856e-05
7.40336e-05
-1.39146e-05
-1.18522e-05
1.39502e-05
6.57001e-05
-1.26014e-05
1.18522e-05
5.51369e-05
-1.08692e-05
-1.08692e-05
1.39502e-05
1.09851e-05
6.57001e-05
-1.26014e-05
1.29802e-05
1.29802e-05
7.76868e-05
9.93513e-06
1.44213e-05
8.64842e-05
5.36756e-06
1.53679e-05
9.22317e-05
1.27161e-12
1.58368e-05
9.50605e-05
-5.36756e-06
1.58368e-05
9.50605e-05
-9.93513e-06
1.53679e-05
9.22317e-05
-1.29802e-05
1.44213e-05
8.64842e-05
-1.39502e-05
1.29802e-05
7.76868e-05
1.09851e-05
6.57001e-05
-1.26014e-05
1.54856e-05
8.42716e-06
7.40336e-05
-1.39146e-05
1.44213e-05
9.93513e-06
8.64842e-05
1.10262e-05
1.10262e-05
9.53139e-05
5.9491e-06
1.17311e-05
0.000100894
1.13299e-12
1.20766e-05
0.000103578
-5.9491e-06
1.20766e-05
0.000103578
-1.10262e-05
1.17311e-05
0.000100894
-1.44213e-05
1.10262e-05
9.53139e-05
-1.54856e-05
9.93513e-06
8.64842e-05
8.42716e-06
7.40336e-05
-1.39146e-05
1.65224e-05
4.56587e-06
7.97608e-05
-1.48177e-05
1.53679e-05
5.36756e-06
9.22317e-05
1.17311e-05
5.9491e-06
0.000100894
6.32131e-06
6.32131e-06
0.000106251
1.14188e-12
6.50261e-06
0.000108787
-6.32131e-06
6.50261e-06
0.000108787
-1.17311e-05
6.32131e-06
0.000106251
-1.53679e-05
5.94911e-06
0.000100894
-1.65224e-05
5.36756e-06
9.22317e-05
4.56587e-06
7.97608e-05
-1.48177e-05
1.70437e-05
-3.8229e-13
8.26632e-05
-1.52754e-05
1.58368e-05
5.56324e-13
9.50605e-05
1.20766e-05
1.22702e-12
0.000103578
6.50261e-06
2.20855e-12
0.000108787
1.79692e-12
3.097e-12
0.000111231
-6.50261e-06
3.39449e-12
0.000111231
-1.20766e-05
3.05391e-12
0.000108787
-1.58368e-05
2.15856e-12
0.000103578
-1.70437e-05
1.24699e-12
9.50605e-05
8.535e-13
8.26632e-05
-1.52754e-05
1.70437e-05
-4.56587e-06
8.26632e-05
-1.52754e-05
1.58368e-05
-5.36756e-06
9.50605e-05
1.20766e-05
-5.9491e-06
0.000103578
6.50261e-06
-6.32131e-06
0.000108787
1.91341e-12
-6.50261e-06
0.000111231
-6.50261e-06
-6.50261e-06
0.000111231
-1.20766e-05
-6.32131e-06
0.000108787
-1.58368e-05
-5.9491e-06
0.000103578
-1.70437e-05
-5.36756e-06
9.50605e-05
-4.56587e-06
8.26632e-05
-1.52754e-05
1.65224e-05
-8.42716e-06
7.97608e-05
-1.48177e-05
1.53679e-05
-9.93513e-06
9.22317e-05
1.17311e-05
-1.10262e-05
0.000100894
6.32131e-06
-1.17311e-05
0.000106251
2.73414e-12
-1.20766e-05
0.000108787
-6.32131e-06
-1.20766e-05
0.000108787
-1.17311e-05
-1.17311e-05
0.000106251
-1.53679e-05
-1.10262e-05
0.000100894
-1.65224e-05
-9.93513e-06
9.22317e-05
-8.42715e-06
7.97608e-05
-1.48177e-05
1.54856e-05
-1.09851e-05
7.40336e-05
-1.39146e-05
1.44213e-05
-1.29802e-05
8.64842e-05
1.10262e-05
-1.44213e-05
9.53139e-05
5.94911e-06
-1.53679e-05
0.000100894
3.70353e-12
-1.58368e-05
0.000103578
-5.9491e-06
-1.58368e-05
0.000103578
-1.10262e-05
-1.53679e-05
0.000100894
-1.44213e-05
-1.44213e-05
9.53139e-05
-1.54856e-05
-1.29802e-05
8.64842e-05
-1.09851e-05
7.40336e-05
-1.39146e-05
1.39502e-05
-1.18522e-05
6.57001e-05
-1.26014e-05
1.29802e-05
-1.39502e-05
7.76868e-05
9.93513e-06
-1.54856e-05
8.64842e-05
5.36757e-06
-1.65224e-05
9.22317e-05
4.05119e-12
-1.70437e-05
9.50605e-05
-5.36756e-06
-1.70437e-05
9.50605e-05
-9.93513e-06
-1.65224e-05
9.22317e-05
-1.29802e-05
-1.54856e-05
8.64842e-05
-1.39502e-05
-1.39502e-05
7.76868e-05
-1.18522e-05
6.57001e-05
-1.26014e-05
1.18522e-05
5.51369e-05
-1.08692e-05
-1.08692e-05
1.09851e-05
6.57001e-05
-1.26014e-05
8.42716e-06
7.40336e-05
-1.39146e-05
4.56587e-06
7.97608e-05
-1.48177e-05
4.18133e-12
8.26632e-05
-1.52754e-05
-4.56587e-06
8.26632e-05
-1.52754e-05
-8.42716e-06
7.97608e-05
-1.48177e-05
-1.09851e-05
7.40336e-05
-1.39146e-05
-1.18522e-05
6.57001e-05
-1.26014e-05
5.51369e-05
-1.08692e-05
-1.08692e-05
5.85838e-06
5.85838e-06
5.3741e-05
-5.16041e-06
-5.16041e-06
5.63822e-06
7.24205e-06
6.48777e-05
-6.19951e-06
4.44884e-06
8.3477e-06
7.39322e-05
-7.05695e-06
2.4527e-06
9.13427e-06
8.02948e-05
-7.67206e-06
3.28411e-12
9.54162e-06
8.35654e-05
-7.9911e-06
-2.45269e-06
9.54162e-06
8.35654e-05
-7.9911e-06
-4.44884e-06
9.13427e-06
8.02948e-05
-7.67206e-06
-5.63821e-06
8.3477e-06
7.39322e-05
-7.05695e-06
-5.85838e-06
7.24205e-06
6.48777e-05
-6.19951e-06
5.85838e-06
5.3741e-05
-5.16041e-06
-5.16041e-06
7.24205e-06
5.63822e-06
6.48777e-05
-6.19951e-06
7.05557e-06
7.05557e-06
7.80597e-05
5.5828e-06
8.17671e-06
8.81279e-05
3.0774e-06
8.95779e-06
9.49136e-05
3.45059e-12
9.35826e-06
9.83213e-05
-3.0774e-06
9.35827e-06
9.83213e-05
-5.5828e-06
8.9578e-06
9.49136e-05
-7.05556e-06
8.17671e-06
8.81279e-05
-7.24205e-06
7.05557e-06
7.80597e-05
5.63822e-06
6.48777e-05
-6.19951e-06
8.34769e-06
4.44885e-06
7.39322e-05
-7.05694e-06
8.17671e-06
5.58281e-06
8.81279e-05
6.48255e-06
6.48255e-06
9.87023e-05
3.5746e-06
7.10177e-06
0.000105658
3.86307e-12
7.41692e-06
0.000109094
-3.5746e-06
7.41692e-06
0.000109094
-6.48254e-06
7.10177e-06
0.000105658
-8.17671e-06
6.48255e-06
9.87023e-05
-8.34769e-06
5.58281e-06
8.81279e-05
4.44885e-06
7.39322e-05
-7.05694e-06
9.13427e-06
2.4527e-06
8.02948e-05
-7.67206e-06
8.95779e-06
3.0774e-06
9.49136e-05
7.10176e-06
3.5746e-06
0.000105658
3.91464e-06
3.91465e-06
0.000112625
4.47248e-12
4.08699e-06
0.000116031
-3.91464e-06
4.08699e-06
0.000116031
-7.10176e-06
3.91465e-06
0.000112625
-8.95779e-06
3.57461e-06
0.000105658
-9.13427e-06
3.0774e-06
9.49136e-05
2.4527e-06
8.02948e-05
-7.67206e-06
9.54161e-06
1.98805e-12
8.35654e-05
-7.9911e-06
9.35826e-06
2.361e-12
9.83213e-05
7.41692e-06
2.96769e-12
0.000109094
4.08698e-06
4.24189e-12
0.000116031
4.69089e-12
4.91732e-12
0.000119405
-4.08698e-06
4.81375e-12
0.000119405
-7.41692e-06
4.06967e-12
0.000116031
-9.35826e-06
3.37846e-12
0.000109094
-9.54161e-06
3.08265e-12
9.83213e-05
3.20874e-12
8.35654e-05
-7.9911e-06
9.54161e-06
-2.45269e-06
8.35654e-05
-7.9911e-06
9.35826e-06
-3.0774e-06
9.83213e-05
7.41692e-06
-3.5746e-06
0.000109094
4.08699e-06
-3.91464e-06
0.000116031
4.49069e-12
-4.08698e-06
0.000119405
-4.08698e-06
-4.08698e-06
0.000119405
-7.41692e-06
-3.91464e-06
0.000116031
-9.35826e-06
-3.5746e-06
0.000109094
-9.54161e-06
-3.0774e-06
9.83213e-05
-2.45269e-06
8.35654e-05
-7.9911e-06
9.13427e-06
-4.44884e-06
8.02948e-05
-7.67206e-06
8.95779e-06
-5.5828e-06
9.49136e-05
7.10176e-06
-6.48254e-06
0.000105658
3.91465e-06
-7.10176e-06
0.000112625
5.3508e-12
-7.41692e-06
0.000116031
-3.91464e-06
-7.41692e-06
0.000116031
-7.10176e-06
-7.10176e-06
0.000112625
-8.95779e-06
-6.48254e-06
0.000105658
-9.13426e-06
-5.5828e-06
9.49136e-05
-4.44884e-06
8.02948e-05
-7.67206e-06
8.34769e-06
-5.63822e-06
7.39322e-05
-7.05695e-06
8.17671e-06
-7.05557e-06
8.81279e-05
6.48255e-06
-8.17671e-06
9.87023e-05
3.57461e-06
-8.95779e-06
0.000105658
6.26297e-12
-9.35826e-06
0.000109094
-3.5746e-06
-9.35826e-06
0.000109094
-6.48254e-06
-8.95779e-06
0.000105658
-8.17671e-06
-8.17671e-06
9.87023e-05
-8.34769e-06
-7.05556e-06
8.81279e-05
-5.63821e-06
7.39322e-05
-7.05694e-06
7.24205e-06
-5.85838e-06
6.48777e-05
-6.19951e-06
7.05557e-06
-7.24205e-06
7.80597e-05
5.5828e-06
-8.34769e-06
8.81279e-05
3.07741e-06
-9.13427e-06
9.49136e-05
6.17965e-12
-9.54161e-06
9.83213e-05
-3.0774e-06
-9.54161e-06
9.83213e-05
-5.5828e-06
-9.13427e-06
9.49136e-05
-7.05556e-06
-8.34769e-06
8.81279e-05
-7.24205e-06
-7.24205e-06
7.80597e-05
-5.85838e-06
6.48777e-05
-6.19951e-06
5.85838e-06
5.3741e-05
-5.16041e-06
-5.16041e-06
5.63822e-06
6.48777e-05
-6.19951e-06
4.44885e-06
7.39322e-05
-7.05694e-06
2.4527e-06
8.02948e-05
-7.67206e-06
5.70723e-12
8.35654e-05
-7.9911e-06
-2.45269e-06
8.35654e-05
-7.9911e-06
-4.44884e-06
8.02948e-05
-7.67206e-06
-5.63821e-06
7.39322e-05
-7.05694e-06
-5.85838e-06
6.48777e-05
-6.19951e-06
5.3741e-05
-5.1604e-06
-5.16041e-06
3.13765e-06
3.13766e-06
5.28085e-05
-2.6714e-06
-2.6714e-06
3.08995e-06
3.9401e-06
6.42305e-05
-3.24517e-06
2.47979e-06
4.60196e-06
7.36666e-05
-3.72624e-06
1.3813e-06
5.08601e-06
8.03851e-05
-4.07785e-06
5.27146e-12
5.3412e-06
8.38681e-05
-4.26265e-06
-1.38129e-06
5.3412e-06
8.38681e-05
-4.26265e-06
-2.47978e-06
5.08601e-06
8.03851e-05
-4.07785e-06
-3.08995e-06
4.60196e-06
7.36666e-05
-3.72624e-06
-3.13765e-06
3.9401e-06
6.42305e-05
-3.24517e-06
3.13766e-06
5.28085e-05
-2.67139e-06
-2.6714e-06
3.94009e-06
3.08996e-06
6.42305e-05
-3.24517e-06
3.94927e-06
3.94927e-06
7.80414e-05
3.19025e-06
4.6577e-06
8.88312e-05
1.78082e-06
5.16767e-06
9.62414e-05
5.55334e-12
5.43451e-06
0.000100009
-1.78081e-06
5.43452e-06
0.000100009
-3.19024e-06
5.16767e-06
9.62414e-05
-3.94926e-06
4.6577e-06
8.88312e-05
-3.94009e-06
3.94927e-06
7.80414e-05
3.08996e-06
6.42305e-05
-3.24516e-06
4.60195e-06
2.47979e-06
7.36666e-05
-3.72623e-06
4.65769e-06
3.19025e-06
8.88312e-05
3.78144e-06
3.78145e-06
0.000100455
2.11545e-06
4.20347e-06
0.000108288
6.02834e-12
4.4231e-06
0.000112221
-2.11544e-06
4.4231e-06
0.000112221
-3.78143e-06
4.20347e-06
0.000108288
-4.65768e-06
3.78145e-06
0.000100455
-4.60195e-06
3.19025e-06
8.88312e-05
2.47979e-06
7.36666e-05
-3.72623e-06
5.08601e-06
1.3813e-06
8.03851e-05
-4.07785e-06
5.16767e-06
1.78082e-06
9.62414e-05
4.20347e-06
2.11546e-06
0.000108288
2.35339e-06
2.35339e-06
0.000116326
6.42745e-12
2.47684e-06
0.000120331
-2.35338e-06
2.47684e-06
0.000120331
-4.20346e-06
2.35339e-06
0.000116326
-5.16766e-06
2.11546e-06
0.000108288
-5.086e-06
1.78082e-06
9.62414e-05
1.3813e-06
8.03851e-05
-4.07784e-06
5.34119e-06
3.55903e-12
8.38681e-05
-4.26264e-06
5.43451e-06
4.43712e-12
0.000100009
4.4231e-06
5.12659e-12
0.000112221
2.47684e-06
6.08771e-12
0.000120331
6.72238e-12
6.45246e-12
0.000124358
-2.47683e-06
6.09843e-12
0.000124358
-4.42309e-06
5.33791e-12
0.000120331
-5.4345e-06
4.58204e-12
0.000112221
-5.34119e-06
4.08697e-12
0.000100009
4.16421e-12
8.38681e-05
-4.26264e-06
5.34119e-06
-1.3813e-06
8.38681e-05
-4.26264e-06
5.43451e-06
-1.78081e-06
0.000100009
4.4231e-06
-2.11545e-06
0.000112221
2.47684e-06
-2.35338e-06
0.000120331
6.25331e-12
-2.47683e-06
0.000124358
-2.47683e-06
-2.47683e-06
0.000124358
-4.42309e-06
-2.35338e-06
0.000120331
-5.4345e-06
-2.11545e-06
0.000112221
-5.34119e-06
-1.78081e-06
0.000100009
-1.38129e-06
8.38681e-05
-4.26264e-06
5.08601e-06
-2.47978e-06
8.03851e-05
-4.07785e-06
5.16767e-06
-3.19025e-06
9.62414e-05
4.20347e-06
-3.78144e-06
0.000108288
2.35339e-06
-4.20346e-06
0.000116326
6.51085e-12
-4.42309e-06
0.000120331
-2.35338e-06
-4.42309e-06
0.000120331
-4.20346e-06
-4.20346e-06
0.000116326
-5.16766e-06
-3.78143e-06
0.000108288
-5.086e-06
-3.19024e-06
9.62414e-05
-2.47978e-06
8.03851e-05
-4.07784e-06
4.60195e-06
-3.08995e-06
7.36666e-05
-3.72623e-06
4.65769e-06
-3.94927e-06
8.88312e-05
3.78144e-06
-4.65769e-06
0.000100455
2.11546e-06
-5.16766e-06
0.000108288
7.23483e-12
-5.43451e-06
0.000112221
-2.11544e-06
-5.43451e-06
0.000112221
-3.78143e-06
-5.16766e-06
0.000108288
-4.65768e-06
-4.65769e-06
0.000100455
-4.60195e-06
-3.94926e-06
8.88312e-05
-3.08995e-06
7.36666e-05
-3.72623e-06
3.94009e-06
-3.13765e-06
6.42305e-05
-3.24517e-06
3.94927e-06
-3.94009e-06
7.80414e-05
3.19025e-06
-4.60195e-06
8.88312e-05
1.78082e-06
-5.086e-06
9.62414e-05
7.23604e-12
-5.34119e-06
0.000100009
-1.78081e-06
-5.34119e-06
0.000100009
-3.19024e-06
-5.086e-06
9.62414e-05
-3.94926e-06
-4.60195e-06
8.88312e-05
-3.94009e-06
-3.94009e-06
7.80414e-05
-3.13765e-06
6.42305e-05
-3.24516e-06
3.13766e-06
5.28085e-05
-2.6714e-06
-2.6714e-06
3.08995e-06
6.42305e-05
-3.24517e-06
2.47979e-06
7.36666e-05
-3.72623e-06
1.38131e-06
8.03851e-05
-4.07785e-06
6.80801e-12
8.38681e-05
-4.26264e-06
-1.38129e-06
8.38681e-05
-4.26264e-06
-2.47978e-06
8.03851e-05
-4.07785e-06
-3.08995e-06
7.36666e-05
-3.72623e-06
-3.13765e-06
6.42305e-05
-3.24517e-06
5.28085e-05
-2.67139e-06
-2.67139e-06
1.64166e-06
1.64166e-06
5.2289e-05
-1.38191e-06
-1.38191e-06
1.63975e-06
2.09453e-06
6.38333e-05
-1.69546e-06
1.33155e-06
2.48021e-06
7.34598e-05
-1.96521e-06
7.47444e-07
2.76794e-06
8.03662e-05
-2.16496e-06
6.96248e-12
2.92141e-06
8.39648e-05
-2.2707e-06
-7.4743e-07
2.92141e-06
8.39648e-05
-2.2707e-06
-1.33154e-06
2.76794e-06
8.03662e-05
-2.16496e-06
-1.63974e-06
2.48021e-06
7.34598e-05
-1.96521e-06
-1.64165e-06
2.09453e-06
6.38333e-05
-1.69546e-06
1.64166e-06
5.2289e-05
-1.38191e-06
-1.38191e-06
2.09453e-06
1.63975e-06
6.38333e-05
-1.69546e-06
2.13832e-06
2.13832e-06
7.79538e-05
1.75299e-06
2.56463e-06
8.91321e-05
9.87816e-07
2.87924e-06
9.68952e-05
7.75663e-12
3.0463e-06
0.000100872
-9.87801e-07
3.0463e-06
0.000100872
-1.75298e-06
2.87924e-06
9.68952e-05
-2.13831e-06
2.56463e-06
8.91321e-05
-2.09452e-06
2.13832e-06
7.79538e-05
1.63975e-06
6.38333e-05
-1.69546e-06
2.4802e-06
1.33155e-06
7.34598e-05
-1.9652e-06
2.56462e-06
1.75299e-06
8.91321e-05
2.11769e-06
2.11769e-06
0.000101349
1.19748e-06
2.38542e-06
0.000109702
8.1257e-12
2.52711e-06
0.000113937
-1.19746e-06
2.52711e-06
0.000113937
-2.11767e-06
2.38543e-06
0.000109702
-2.56461e-06
2.11769e-06
0.000101349
-2.48019e-06
1.753e-06
8.91321e-05
1.33155e-06
7.34598e-05
-1.9652e-06
2.76794e-06
7.47442e-07
8.03662e-05
-2.16495e-06
2.87924e-06
9.87815e-07
9.68952e-05
2.38542e-06
1.19748e-06
0.000109702
1.35107e-06
1.35107e-06
0.000118394
8.74981e-12
1.4322e-06
0.000122777
-1.35105e-06
1.4322e-06
0.000122777
-2.38541e-06
1.35107e-06
0.000118394
-2.87923e-06
1.19748e-06
0.000109702
-2.76793e-06
9.87816e-07
9.68952e-05
7.47443e-07
8.03662e-05
-2.16495e-06
2.92141e-06
4.2598e-12
8.39648e-05
-2.2707e-06
3.0463e-06
5.74123e-12
0.000100872
2.52711e-06
6.86291e-12
0.000113937
1.4322e-06
7.77753e-12
0.000122777
9.07817e-12
8.0434e-12
0.000127223
-1.43218e-06
7.47228e-12
0.000127223
-2.5271e-06
6.78161e-12
0.000122777
-3.04629e-06
6.03067e-12
0.000113937
-2.9214e-06
5.59162e-12
0.000100872
5.6848e-12
8.39649e-05
-2.27069e-06
2.92141e-06
-7.47433e-07
8.39648e-05
-2.2707e-06
3.0463e-06
-9.87804e-07
0.000100872
2.52711e-06
-1.19746e-06
0.000113937
1.4322e-06
-1.35105e-06
0.000122777
8.35636e-12
-1.43218e-06
0.000127223
-1.43218e-06
-1.43218e-06
0.000127223
-2.5271e-06
-1.35105e-06
0.000122777
-3.04629e-06
-1.19746e-06
0.000113937
-2.9214e-06
-9.87804e-07
0.000100872
-7.47431e-07
8.39649e-05
-2.27069e-06
2.76794e-06
-1.33154e-06
8.03662e-05
-2.16495e-06
2.87924e-06
-1.75298e-06
9.68952e-05
2.38542e-06
-2.11768e-06
0.000109702
1.35107e-06
-2.38541e-06
0.000118394
8.17096e-12
-2.5271e-06
0.000122777
-1.35105e-06
-2.5271e-06
0.000122777
-2.38541e-06
-2.38541e-06
0.000118394
-2.87923e-06
-2.11767e-06
0.000109702
-2.76793e-06
-1.75298e-06
9.68952e-05
-1.33154e-06
8.03662e-05
-2.16495e-06
2.4802e-06
-1.63974e-06
7.34598e-05
-1.96521e-06
2.56462e-06
-2.13831e-06
8.91321e-05
2.11769e-06
-2.56462e-06
0.000101349
1.19748e-06
-2.87923e-06
0.000109702
8.77398e-12
-3.04629e-06
0.000113937
-1.19746e-06
-3.04629e-06
0.000113937
-2.11767e-06
-2.87923e-06
0.000109702
-2.56461e-06
-2.56462e-06
0.000101349
-2.48019e-06
-2.13831e-06
8.91321e-05
-1.63974e-06
7.34598e-05
-1.9652e-06
2.09453e-06
-1.64166e-06
6.38333e-05
-1.69546e-06
2.13832e-06
-2.09453e-06
7.79538e-05
1.75299e-06
-2.4802e-06
8.91321e-05
9.87817e-07
-2.76794e-06
9.68952e-05
8.91106e-12
-2.9214e-06
0.000100872
-9.87801e-07
-2.9214e-06
0.000100872
-1.75298e-06
-2.76794e-06
9.68952e-05
-2.13831e-06
-2.4802e-06
8.91321e-05
-2.09452e-06
-2.09453e-06
7.79538e-05
-1.64165e-06
6.38333e-05
-1.69545e-06
1.64166e-06
5.2289e-05
-1.38191e-06
-1.38191e-06
1.63975e-06
6.38333e-05
-1.69546e-06
1.33155e-06
7.34598e-05
-1.9652e-06
7.47445e-07
8.03662e-05
-2.16495e-06
8.4484e-12
8.39649e-05
-2.2707e-06
-7.47429e-07
8.39649e-05
-2.2707e-06
-1.33153e-06
8.03662e-05
-2.16495e-06
-1.63974e-06
7.34598e-05
-1.9652e-06
-1.64165e-06
6.38333e-05
-1.69546e-06
5.2289e-05
-1.38191e-06
-1.38191e-06
9.09064e-07
9.09067e-07
5.19879e-05
-7.58538e-07
-7.5854e-07
9.14149e-07
1.16313e-06
6.3597e-05
-9.31957e-07
7.4652e-07
1.38217e-06
7.33271e-05
-1.0818e-06
4.20605e-07
1.54741e-06
8.03381e-05
-1.19341e-06
8.79941e-12
1.63618e-06
8.4002e-05
-1.25274e-06
-4.20587e-07
1.63618e-06
8.4002e-05
-1.25274e-06
-7.46504e-07
1.54741e-06
8.03381e-05
-1.19341e-06
-9.14137e-07
1.38217e-06
7.33271e-05
-1.0818e-06
-9.09055e-07
1.16313e-06
6.3597e-05
-9.31957e-07
9.09068e-07
5.19879e-05
-7.58532e-07
-7.58541e-07
1.16313e-06
9.14152e-07
6.3597e-05
-9.31954e-07
1.19819e-06
1.19819e-06
7.78837e-05
9.8968e-07
1.44542e-06
8.92774e-05
5.60459e-07
1.6306e-06
9.72413e-05
1.00933e-11
1.72986e-06
0.000101338
-5.60439e-07
1.72986e-06
0.000101338
-9.89662e-07
1.6306e-06
9.72413e-05
-1.19818e-06
1.44542e-06
8.92774e-05
-1.16312e-06
1.19819e-06
7.78837e-05
9.14153e-07
6.3597e-05
-9.31948e-07
1.38217e-06
7.46519e-07
7.33271e-05
-1.0818e-06
1.44542e-06
9.89679e-07
8.92774e-05
1.20468e-06
1.20468e-06
0.00010183
6.85377e-07
1.36533e-06
0.000110487
1.08335e-11
1.45129e-06
0.000114901
-6.85355e-07
1.45129e-06
0.000114901
-1.20466e-06
1.36533e-06
0.000110487
-1.4454e-06
1.20468e-06
0.00010183
-1.38216e-06
9.89681e-07
8.92774e-05
7.46521e-07
7.33271e-05
-1.08179e-06
1.54741e-06
4.20602e-07
8.03381e-05
-1.19341e-06
1.6306e-06
5.60456e-07
9.72413e-05
1.36533e-06
6.85375e-07
0.000110487
7.78668e-07
7.78667e-07
0.000119568
1.17531e-11
8.28543e-07
0.000124178
-7.78645e-07
8.28543e-07
0.000124178
-1.36531e-06
7.78667e-07
0.000119568
-1.63058e-06
6.85377e-07
0.000110487
-1.54739e-06
5.60459e-07
9.72413e-05
4.20605e-07
8.03382e-05
-1.1934e-06
1.63618e-06
4.66949e-12
8.4002e-05
-1.25274e-06
1.72986e-06
6.52097e-12
0.000101338
1.45129e-06
7.68572e-12
0.000114901
8.28544e-07
9.11811e-12
0.000124178
1.18726e-11
9.54804e-12
0.00012888
-8.28521e-07
9.08837e-12
0.00012888
-1.45127e-06
8.48591e-12
0.000124178
-1.72984e-06
7.79808e-12
0.000114901
-1.63616e-06
7.65613e-12
0.000101338
7.92989e-12
8.4002e-05
-1.25273e-06
1.63618e-06
-4.20592e-07
8.4002e-05
-1.25274e-06
1.72986e-06
-5.60443e-07
0.000101338
1.45129e-06
-6.85361e-07
0.000114901
8.28544e-07
-7.78651e-07
0.000124178
1.12238e-11
-8.28527e-07
0.00012888
-8.28521e-07
-8.28527e-07
0.00012888
-1.45127e-06
-7.78651e-07
0.000124178
-1.72984e-06
-6.8536e-07
0.000114901
-1.63616e-06
-5.60442e-07
0.000101338
-4.20589e-07
8.4002e-05
-1.25273e-06
1.54741e-06
-7.46509e-07
8.03381e-05
-1.19341e-06
1.6306e-06
-9.89667e-07
9.72413e-05
1.36533e-06
-1.20467e-06
0.000110487
7.78668e-07
-1.36532e-06
0.000119568
1.0981e-11
-1.45128e-06
0.000124178
-7.78646e-07
-1.45128e-06
0.000124178
-1.36531e-06
-1.36532e-06
0.000119568
-1.63058e-06
-1.20467e-06
0.000110487
-1.54739e-06
-9.89665e-07
9.72413e-05
-7.46507e-07
8.03382e-05
-1.1934e-06
1.38217e-06
-9.14143e-07
7.33271e-05
-1.0818e-06
1.44542e-06
-1.19818e-06
8.92774e-05
1.20468e-06
-1.44541e-06
0.00010183
6.85377e-07
-1.63059e-06
0.000110487
1.16528e-11
-1.72985e-06
0.000114901
-6.85355e-07
-1.72985e-06
0.000114901
-1.20466e-06
-1.63059e-06
0.000110487
-1.4454e-06
-1.44541e-06
0.00010183
-1.38215e-06
-1.19818e-06
8.92774e-05
-9.1414e-07
7.33271e-05
-1.08179e-06
1.16313e-06
-9.09062e-07
6.3597e-05
-9.31955e-07
1.19819e-06
-1.16313e-06
7.78837e-05
9.89681e-07
-1.38216e-06
8.92774e-05
5.6046e-07
-1.5474e-06
9.72413e-05
1.18657e-11
-1.63617e-06
0.000101338
-5.60438e-07
-1.63617e-06
0.000101338
-9.89661e-07
-1.5474e-06
9.72413e-05
-1.19817e-06
-1.38216e-06
8.92774e-05
-1.16312e-06
-1.16312e-06
7.78837e-05
-9.09059e-07
6.35971e-05
-9.31946e-07
9.09065e-07
5.19879e-05
-7.58537e-07
-7.58539e-07
9.14152e-07
6.3597e-05
-9.31953e-07
7.46522e-07
7.33271e-05
-1.0818e-06
4.20607e-07
8.03382e-05
-1.19341e-06
1.09754e-11
8.4002e-05
-1.25273e-06
-4.20586e-07
8.4002e-05
-1.25273e-06
-7.46503e-07
8.03382e-05
-1.19341e-06
-9.14135e-07
7.33271e-05
-1.0818e-06
-9.09053e-07
6.35971e-05
-9.31951e-07
5.19879e-05
-7.58531e-07
-7.58534e-07
5.05601e-07
5.05602e-07
5.18187e-05
-4.21011e-07
-4.21012e-07
5.10415e-07
6.49446e-07
6.34611e-05
-5.18369e-07
4.18345e-07
7.74707e-07
7.32475e-05
-6.03092e-07
2.36308e-07
8.69843e-07
8.03168e-05
-6.66423e-07
1.11949e-11
9.21166e-07
8.40173e-05
-7.00156e-07
-2.36286e-07
9.21166e-07
8.40173e-05
-7.00156e-07
-4.18325e-07
8.69845e-07
8.03168e-05
-6.66424e-07
-5.10398e-07
7.74709e-07
7.32476e-05
-6.03093e-07
-5.05588e-07
6.49449e-07
6.34612e-05
-5.18371e-07
5.05605e-07
5.18187e-05
-4.21003e-07
-4.21014e-07
6.49445e-07
5.10416e-07
6.34611e-05
-5.18367e-07
6.72619e-07
6.7262e-07
7.78373e-05
5.58273e-07
8.15595e-07
8.93508e-05
3.17209e-07
9.23702e-07
9.74285e-05
1.3012e-11
9.81992e-07
0.000101595
-3.17183e-07
9.81992e-07
0.000101595
-5.5825e-07
9.23703e-07
9.74285e-05
-6.72601e-07
8.15597e-07
8.93508e-05
-6.49431e-07
6.72623e-07
7.78374e-05
5.10419e-07
6.34612e-05
-5.18359e-07
7.74706e-07
4.18344e-07
7.32475e-05
-6.0309e-07
8.15595e-07
5.58271e-07
8.93508e-05
6.83806e-07
6.83804e-07
0.000102094
3.9061e-07
7.78676e-07
0.000110925
1.40358e-11
8.29807e-07
0.000115444
-3.90582e-07
8.29808e-07
0.000115444
-6.83781e-07
7.78678e-07
0.000110925
-8.15575e-07
6.83806e-07
0.000102094
-7.74691e-07
5.58274e-07
8.93508e-05
4.18347e-07
7.32476e-05
-6.03081e-07
8.69843e-07
2.36304e-07
8.03168e-05
-6.66422e-07
9.23702e-07
3.17204e-07
9.74285e-05
7.78678e-07
3.90606e-07
0.000110925
4.46124e-07
4.46121e-07
0.000120233
1.51168e-11
4.76039e-07
0.000124978
-4.46094e-07
4.76039e-07
0.000124978
-7.78652e-07
4.46122e-07
0.000120233
-9.23681e-07
3.90609e-07