/*--------------------------------*- C++ -*----------------------------------*\
| =========                 |                                                 |
| \\      /  F ield         | OpenFOAM: The Open Source CFD Toolbox           |
|  \\    /   O peration     | Version:  2412                                  |
|   \\  /    A nd           | Website:  www.openfoam.com                      |
|    \\/     M anipulation  |                                                 |
\*---------------------------------------------------------------------------*/
FoamFile
{
    version     2.0;
    format      ascii;
    arch        "LSB;label=32;scalar=64";
    class       volVectorField;
    location    "0.3";
    object      U;
}
// * * * * * * * * * * * * * * * * * * * * * * * * * * * * * * * * * * * * * //

dimensions      [0 1 -1 0 0 0 0];

internalField   nonuniform List<vector> 
15000
(
(0.228907 0.228907 1.09642)
(0.185942 0.242203 1.11728)
(0.134987 0.248633 1.12521)
(0.0815406 0.251801 1.12745)
(0.0272525 0.25306 1.12771)
(-0.0272525 0.25306 1.12771)
(-0.0815406 0.251801 1.12745)
(-0.134987 0.248633 1.12521)
(-0.185942 0.242203 1.11728)
(-0.228908 0.228908 1.09642)
(0.242203 0.185942 1.11728)
(0.191435 0.191435 1.13034)
(0.135769 0.193538 1.13005)
(0.0807933 0.194086 1.12631)
(0.0268006 0.194068 1.12356)
(-0.0268006 0.194068 1.12356)
(-0.0807933 0.194086 1.12631)
(-0.135769 0.193538 1.13005)
(-0.191435 0.191435 1.13034)
(-0.242203 0.185942 1.11728)
(0.248633 0.134987 1.12521)
(0.193538 0.135769 1.13005)
(0.135542 0.135542 1.1239)
(0.0798357 0.13488 1.11643)
(0.0263312 0.134349 1.11191)
(-0.0263312 0.134349 1.11191)
(-0.0798357 0.13488 1.11643)
(-0.135542 0.135542 1.1239)
(-0.193538 0.135769 1.13005)
(-0.248633 0.134987 1.12521)
(0.251801 0.0815406 1.12745)
(0.194086 0.0807933 1.12631)
(0.13488 0.0798357 1.11643)
(0.0789165 0.0789165 1.10682)
(0.0259287 0.0783471 1.10132)
(-0.0259287 0.0783471 1.10132)
(-0.0789165 0.0789165 1.10682)
(-0.13488 0.0798357 1.11643)
(-0.194086 0.0807933 1.12631)
(-0.251801 0.0815406 1.12745)
(0.25306 0.0272525 1.12771)
(0.194068 0.0268006 1.12356)
(0.134349 0.0263312 1.11191)
(0.078347 0.0259287 1.10132)
(0.0256933 0.0256933 1.09541)
(-0.0256933 0.0256933 1.09541)
(-0.078347 0.0259287 1.10132)
(-0.134349 0.0263312 1.11191)
(-0.194068 0.0268006 1.12356)
(-0.25306 0.0272525 1.12771)
(0.25306 -0.0272526 1.12771)
(0.194068 -0.0268006 1.12356)
(0.134349 -0.0263313 1.11191)
(0.0783471 -0.0259287 1.10132)
(0.0256933 -0.0256933 1.09541)
(-0.0256933 -0.0256933 1.09541)
(-0.078347 -0.0259287 1.10132)
(-0.134349 -0.0263313 1.11191)
(-0.194068 -0.0268006 1.12356)
(-0.25306 -0.0272525 1.12771)
(0.251801 -0.0815406 1.12745)
(0.194086 -0.0807933 1.12631)
(0.13488 -0.0798357 1.11643)
(0.0789165 -0.0789166 1.10682)
(0.0259287 -0.0783471 1.10132)
(-0.0259287 -0.0783471 1.10132)
(-0.0789165 -0.0789165 1.10682)
(-0.13488 -0.0798357 1.11643)
(-0.194086 -0.0807933 1.12631)
(-0.251801 -0.0815406 1.12745)
(0.248633 -0.134987 1.12521)
(0.193538 -0.135769 1.13005)
(0.135542 -0.135542 1.1239)
(0.0798357 -0.13488 1.11643)
(0.0263313 -0.134349 1.11191)
(-0.0263312 -0.134349 1.11191)
(-0.0798357 -0.13488 1.11643)
(-0.135542 -0.135542 1.1239)
(-0.193538 -0.135769 1.13005)
(-0.248633 -0.134987 1.12521)
(0.242203 -0.185942 1.11728)
(0.191435 -0.191435 1.13034)
(0.135769 -0.193538 1.13005)
(0.0807933 -0.194086 1.12631)
(0.0268006 -0.194068 1.12356)
(-0.0268006 -0.194068 1.12356)
(-0.0807933 -0.194086 1.12631)
(-0.135769 -0.193538 1.13005)
(-0.191435 -0.191435 1.13034)
(-0.242203 -0.185942 1.11728)
(0.228907 -0.228908 1.09642)
(0.185942 -0.242203 1.11728)
(0.134987 -0.248633 1.12521)
(0.0815406 -0.251801 1.12745)
(0.0272525 -0.25306 1.12771)
(-0.0272525 -0.25306 1.12771)
(-0.0815406 -0.251801 1.12745)
(-0.134987 -0.248633 1.12521)
(-0.185942 -0.242203 1.11728)
(-0.228907 -0.228907 1.09642)
(0.119433 0.119433 1.27601)
(0.105305 0.142195 1.33638)
(0.0822748 0.160323 1.37029)
(0.0523247 0.17285 1.3878)
(0.0179349 0.179205 1.39498)
(-0.0179349 0.179205 1.39498)
(-0.0523248 0.17285 1.3878)
(-0.0822748 0.160323 1.37029)
(-0.105305 0.142195 1.33638)
(-0.119433 0.119433 1.27601)
(0.142195 0.105305 1.33638)
(0.125602 0.125602 1.3917)
(0.0974159 0.141608 1.41407)
(0.0614424 0.152425 1.4211)
(0.0209592 0.157837 1.42242)
(-0.0209592 0.157837 1.42242)
(-0.0614424 0.152425 1.4211)
(-0.0974159 0.141608 1.41407)
(-0.125602 0.125602 1.3917)
(-0.142195 0.105305 1.33638)
(0.160323 0.0822748 1.37029)
(0.141608 0.0974159 1.41407)
(0.109224 0.109224 1.42562)
(0.0684583 0.117081 1.42434)
(0.023269 0.120977 1.42122)
(-0.023269 0.120977 1.42122)
(-0.0684583 0.117081 1.42434)
(-0.109224 0.109224 1.42562)
(-0.141608 0.0974159 1.41407)
(-0.160323 0.0822748 1.37029)
(0.17285 0.0523248 1.3878)
(0.152425 0.0614424 1.4211)
(0.117081 0.0684584 1.42434)
(0.0730789 0.0730789 1.41725)
(0.0247827 0.0753577 1.41115)
(-0.0247827 0.0753577 1.41115)
(-0.0730789 0.0730789 1.41725)
(-0.117081 0.0684584 1.42434)
(-0.152425 0.0614424 1.4211)
(-0.17285 0.0523248 1.3878)
(0.179205 0.0179349 1.39498)
(0.157837 0.0209592 1.42242)
(0.120977 0.023269 1.42122)
(0.0753577 0.0247827 1.41115)
(0.0255273 0.0255273 1.40355)
(-0.0255273 0.0255273 1.40355)
(-0.0753577 0.0247827 1.41115)
(-0.120977 0.023269 1.42122)
(-0.157837 0.0209592 1.42242)
(-0.179205 0.0179349 1.39498)
(0.179205 -0.0179349 1.39498)
(0.157837 -0.0209592 1.42242)
(0.120977 -0.023269 1.42122)
(0.0753577 -0.0247827 1.41115)
(0.0255273 -0.0255273 1.40355)
(-0.0255273 -0.0255273 1.40355)
(-0.0753577 -0.0247827 1.41115)
(-0.120977 -0.023269 1.42122)
(-0.157837 -0.0209592 1.42242)
(-0.179205 -0.0179349 1.39498)
(0.17285 -0.0523248 1.3878)
(0.152425 -0.0614424 1.4211)
(0.117081 -0.0684584 1.42434)
(0.0730789 -0.0730789 1.41725)
(0.0247827 -0.0753577 1.41115)
(-0.0247827 -0.0753577 1.41115)
(-0.0730789 -0.0730789 1.41725)
(-0.117081 -0.0684583 1.42434)
(-0.152425 -0.0614424 1.4211)
(-0.17285 -0.0523248 1.3878)
(0.160323 -0.0822748 1.37029)
(0.141608 -0.0974159 1.41407)
(0.109224 -0.109224 1.42562)
(0.0684583 -0.117081 1.42434)
(0.023269 -0.120977 1.42122)
(-0.023269 -0.120977 1.42122)
(-0.0684583 -0.117081 1.42434)
(-0.109224 -0.109224 1.42562)
(-0.141608 -0.0974159 1.41407)
(-0.160323 -0.0822748 1.37029)
(0.142195 -0.105305 1.33638)
(0.125602 -0.125602 1.3917)
(0.0974159 -0.141608 1.41407)
(0.0614424 -0.152425 1.4211)
(0.0209592 -0.157837 1.42242)
(-0.0209592 -0.157837 1.42242)
(-0.0614424 -0.152425 1.4211)
(-0.0974159 -0.141608 1.41407)
(-0.125602 -0.125602 1.3917)
(-0.142195 -0.105305 1.33638)
(0.119433 -0.119433 1.27601)
(0.105305 -0.142195 1.33638)
(0.0822748 -0.160323 1.37029)
(0.0523248 -0.17285 1.3878)
(0.0179349 -0.179205 1.39498)
(-0.0179349 -0.179205 1.39498)
(-0.0523248 -0.17285 1.3878)
(-0.0822748 -0.160323 1.37029)
(-0.105305 -0.142195 1.33638)
(-0.119433 -0.119433 1.27601)
(0.0691678 0.0691678 1.1775)
(0.0663285 0.0860612 1.28498)
(0.0542915 0.100121 1.35876)
(0.0355723 0.110451 1.40443)
(0.0123761 0.115907 1.42606)
(-0.0123761 0.115907 1.42606)
(-0.0355723 0.110451 1.40443)
(-0.0542915 0.100121 1.35876)
(-0.0663285 0.0860612 1.28498)
(-0.0691678 0.0691679 1.1775)
(0.0860611 0.0663285 1.28498)
(0.0829902 0.0829902 1.40363)
(0.0680488 0.0969392 1.47467)
(0.0444957 0.107019 1.51405)
(0.01545 0.112284 1.5314)
(-0.01545 0.112284 1.5314)
(-0.0444957 0.107019 1.51405)
(-0.0680488 0.0969392 1.47467)
(-0.0829902 0.0829902 1.40363)
(-0.0860611 0.0663285 1.28498)
(0.100121 0.0542915 1.35876)
(0.0969392 0.0680489 1.47467)
(0.079551 0.0795511 1.53953)
(0.0519013 0.0877176 1.57249)
(0.0179916 0.0919409 1.58593)
(-0.0179916 0.0919409 1.58593)
(-0.0519013 0.0877176 1.57249)
(-0.079551 0.0795511 1.53953)
(-0.0969392 0.0680489 1.47467)
(-0.100121 0.0542915 1.35876)
(0.110451 0.0355724 1.40443)
(0.107019 0.0444957 1.51405)
(0.0877176 0.0519014 1.57249)
(0.0571038 0.0571038 1.60012)
(0.0197696 0.0597794 1.61056)
(-0.0197696 0.0597794 1.61056)
(-0.0571038 0.0571038 1.60012)
(-0.0877176 0.0519014 1.57249)
(-0.107019 0.0444957 1.51405)
(-0.110451 0.0355724 1.40443)
(0.115907 0.0123761 1.42606)
(0.112284 0.01545 1.5314)
(0.0919409 0.0179916 1.58593)
(0.0597793 0.0197696 1.61056)
(0.0206819 0.0206819 1.61936)
(-0.0206818 0.0206819 1.61936)
(-0.0597793 0.0197696 1.61056)
(-0.0919409 0.0179916 1.58593)
(-0.112284 0.01545 1.5314)
(-0.115907 0.0123761 1.42606)
(0.115907 -0.0123761 1.42606)
(0.112284 -0.01545 1.5314)
(0.0919409 -0.0179916 1.58593)
(0.0597793 -0.0197696 1.61056)
(0.0206819 -0.0206818 1.61936)
(-0.0206818 -0.0206818 1.61936)
(-0.0597793 -0.0197696 1.61056)
(-0.0919409 -0.0179916 1.58593)
(-0.112284 -0.01545 1.5314)
(-0.115907 -0.0123761 1.42606)
(0.110451 -0.0355724 1.40443)
(0.107019 -0.0444957 1.51405)
(0.0877176 -0.0519013 1.57249)
(0.0571038 -0.0571038 1.60012)
(0.0197696 -0.0597793 1.61056)
(-0.0197696 -0.0597793 1.61056)
(-0.0571038 -0.0571038 1.60012)
(-0.0877176 -0.0519013 1.57249)
(-0.107019 -0.0444957 1.51405)
(-0.110451 -0.0355723 1.40443)
(0.100121 -0.0542915 1.35876)
(0.0969392 -0.0680489 1.47467)
(0.079551 -0.079551 1.53953)
(0.0519014 -0.0877176 1.57249)
(0.0179916 -0.0919409 1.58593)
(-0.0179916 -0.0919409 1.58593)
(-0.0519013 -0.0877176 1.57249)
(-0.079551 -0.079551 1.53953)
(-0.0969392 -0.0680488 1.47467)
(-0.100121 -0.0542915 1.35876)
(0.0860612 -0.0663285 1.28498)
(0.0829902 -0.0829902 1.40363)
(0.0680489 -0.0969392 1.47467)
(0.0444957 -0.107019 1.51405)
(0.01545 -0.112284 1.5314)
(-0.01545 -0.112284 1.5314)
(-0.0444957 -0.107019 1.51405)
(-0.0680488 -0.0969392 1.47467)
(-0.0829902 -0.0829902 1.40363)
(-0.0860611 -0.0663285 1.28498)
(0.0691678 -0.0691678 1.1775)
(0.0663285 -0.0860612 1.28498)
(0.0542915 -0.100121 1.35876)
(0.0355724 -0.110451 1.40443)
(0.0123761 -0.115907 1.42606)
(-0.012376 -0.115907 1.42606)
(-0.0355723 -0.110451 1.40443)
(-0.0542915 -0.100121 1.35876)
(-0.0663285 -0.0860611 1.28498)
(-0.0691678 -0.0691678 1.1775)
(0.0332516 0.0332516 1.16091)
(0.0331316 0.0433267 1.28641)
(0.0280844 0.052317 1.37799)
(0.0188541 0.0591907 1.43758)
(0.00663984 0.0629071 1.46676)
(-0.0066398 0.0629071 1.46676)
(-0.0188541 0.0591907 1.43758)
(-0.0280843 0.052317 1.37799)
(-0.0331315 0.0433267 1.28641)
(-0.0332516 0.0332516 1.16091)
(0.0433267 0.0331316 1.28641)
(0.0439778 0.0439778 1.43448)
(0.0376122 0.0536891 1.53212)
(0.0252891 0.0610167 1.5912)
(0.00890238 0.0649471 1.61892)
(-0.00890234 0.0649471 1.61892)
(-0.0252891 0.0610167 1.5912)
(-0.0376122 0.0536891 1.53212)
(-0.0439778 0.0439778 1.43448)
(-0.0433267 0.0331316 1.28641)
(0.052317 0.0280844 1.37799)
(0.0536891 0.0376123 1.53212)
(0.0461137 0.0461137 1.63022)
(0.0310001 0.0524368 1.68711)
(0.010906 0.0558026 1.71295)
(-0.010906 0.0558026 1.71295)
(-0.031 0.0524368 1.68711)
(-0.0461137 0.0461138 1.63022)
(-0.0536891 0.0376123 1.53212)
(-0.052317 0.0280844 1.37799)
(0.0591906 0.0188541 1.43758)
(0.0610167 0.0252892 1.5912)
(0.0524368 0.0310001 1.68711)
(0.0352135 0.0352135 1.74128)
(0.0123798 0.0374466 1.76533)
(-0.0123798 0.0374466 1.76533)
(-0.0352135 0.0352136 1.74128)
(-0.0524368 0.0310001 1.68711)
(-0.0610167 0.0252892 1.5912)
(-0.0591906 0.0188541 1.43758)
(0.062907 0.00663984 1.46676)
(0.0649471 0.00890238 1.61892)
(0.0558025 0.010906 1.71295)
(0.0374466 0.0123798 1.76533)
(0.0131595 0.0131595 1.78829)
(-0.0131594 0.0131595 1.78829)
(-0.0374465 0.0123798 1.76533)
(-0.0558025 0.010906 1.71295)
(-0.064947 0.00890238 1.61892)
(-0.062907 0.00663984 1.46676)
(0.062907 -0.00663981 1.46676)
(0.0649471 -0.00890235 1.61892)
(0.0558025 -0.010906 1.71295)
(0.0374466 -0.0123798 1.76533)
(0.0131595 -0.0131594 1.78829)
(-0.0131594 -0.0131594 1.78829)
(-0.0374465 -0.0123798 1.76533)
(-0.0558025 -0.010906 1.71295)
(-0.064947 -0.00890234 1.61892)
(-0.062907 -0.0066398 1.46676)
(0.0591906 -0.0188541 1.43758)
(0.0610167 -0.0252891 1.5912)
(0.0524368 -0.0310001 1.68711)
(0.0352135 -0.0352135 1.74128)
(0.0123798 -0.0374465 1.76533)
(-0.0123798 -0.0374465 1.76533)
(-0.0352135 -0.0352135 1.74128)
(-0.0524368 -0.031 1.68711)
(-0.0610167 -0.0252891 1.5912)
(-0.0591906 -0.0188541 1.43758)
(0.052317 -0.0280844 1.37799)
(0.0536891 -0.0376122 1.53212)
(0.0461137 -0.0461137 1.63022)
(0.0310001 -0.0524368 1.68711)
(0.010906 -0.0558025 1.71295)
(-0.0109059 -0.0558025 1.71295)
(-0.031 -0.0524368 1.68711)
(-0.0461137 -0.0461137 1.63022)
(-0.0536891 -0.0376122 1.53212)
(-0.052317 -0.0280843 1.37799)
(0.0433267 -0.0331316 1.28641)
(0.0439778 -0.0439778 1.43448)
(0.0376122 -0.0536891 1.53212)
(0.0252892 -0.0610167 1.5912)
(0.0089024 -0.064947 1.61892)
(-0.00890233 -0.064947 1.61892)
(-0.0252891 -0.0610167 1.5912)
(-0.0376122 -0.0536891 1.53212)
(-0.0439778 -0.0439778 1.43448)
(-0.0433267 -0.0331316 1.28641)
(0.0332516 -0.0332516 1.16091)
(0.0331316 -0.0433267 1.28641)
(0.0280844 -0.052317 1.37799)
(0.0188541 -0.0591906 1.43758)
(0.00663986 -0.062907 1.46676)
(-0.00663979 -0.062907 1.46676)
(-0.0188541 -0.0591906 1.43758)
(-0.0280843 -0.052317 1.37799)
(-0.0331315 -0.0433267 1.28641)
(-0.0332516 -0.0332516 1.16091)
(0.0175934 0.0175934 1.1293)
(0.0181395 0.0231494 1.26458)
(0.0156937 0.028238 1.36677)
(0.0106825 0.0322345 1.43514)
(0.00378901 0.0344324 1.46924)
(-0.00378895 0.0344324 1.46924)
(-0.0106825 0.0322345 1.43514)
(-0.0156936 0.028238 1.36677)
(-0.0181395 0.0231494 1.26458)
(-0.0175934 0.0175935 1.1293)
(0.0231494 0.0181395 1.26458)
(0.0243795 0.0243795 1.42938)
(0.0213914 0.0301743 1.54374)
(0.0146363 0.0346862 1.61603)
(0.0051983 0.0371533 1.651)
(-0.00519823 0.0371533 1.651)
(-0.0146363 0.0346862 1.61603)
(-0.0213913 0.0301743 1.54374)
(-0.0243794 0.0243795 1.42938)
(-0.0231494 0.0181395 1.26458)
(0.0282379 0.0156937 1.36677)
(0.0301743 0.0213914 1.54374)
(0.0266956 0.0266956 1.66384)
(0.0183098 0.0307757 1.73774)
(0.00650699 0.0329926 1.77277)
(-0.00650691 0.0329926 1.77278)
(-0.0183097 0.0307757 1.73774)
(-0.0266956 0.0266957 1.66384)
(-0.0301742 0.0213914 1.54374)
(-0.0282379 0.0156937 1.36677)
(0.0322345 0.0106825 1.43514)
(0.0346861 0.0146363 1.61603)
(0.0307757 0.0183098 1.73774)
(0.0211171 0.0211171 1.81159)
(0.00750494 0.0226372 1.84619)
(-0.00750486 0.0226372 1.84619)
(-0.021117 0.0211171 1.81159)
(-0.0307756 0.0183098 1.73774)
(-0.0346861 0.0146363 1.61603)
(-0.0322344 0.0106825 1.43514)
(0.0344323 0.00378901 1.46924)
(0.0371533 0.0051983 1.651)
(0.0329926 0.00650699 1.77278)
(0.0226372 0.00750494 1.84619)
(0.00804454 0.00804455 1.8804)
(-0.00804446 0.00804455 1.8804)
(-0.0226371 0.00750494 1.84619)
(-0.0329925 0.00650699 1.77278)
(-0.0371533 0.0051983 1.651)
(-0.0344323 0.00378901 1.46924)
(0.0344323 -0.00378896 1.46924)
(0.0371533 -0.00519824 1.651)
(0.0329926 -0.00650693 1.77278)
(0.0226372 -0.00750487 1.84619)
(0.00804454 -0.00804447 1.8804)
(-0.00804446 -0.00804447 1.8804)
(-0.0226371 -0.00750487 1.84619)
(-0.0329925 -0.00650693 1.77278)
(-0.0371533 -0.00519824 1.651)
(-0.0344323 -0.00378895 1.46924)
(0.0322345 -0.0106825 1.43514)
(0.0346861 -0.0146363 1.61603)
(0.0307757 -0.0183097 1.73774)
(0.0211171 -0.0211171 1.81159)
(0.00750494 -0.0226371 1.84619)
(-0.00750486 -0.0226371 1.84619)
(-0.021117 -0.0211171 1.81159)
(-0.0307756 -0.0183097 1.73774)
(-0.0346861 -0.0146363 1.61603)
(-0.0322344 -0.0106825 1.43514)
(0.0282379 -0.0156937 1.36677)
(0.0301743 -0.0213913 1.54374)
(0.0266956 -0.0266956 1.66384)
(0.0183098 -0.0307756 1.73774)
(0.006507 -0.0329925 1.77278)
(-0.00650691 -0.0329925 1.77278)
(-0.0183097 -0.0307756 1.73774)
(-0.0266956 -0.0266956 1.66384)
(-0.0301742 -0.0213913 1.54374)
(-0.0282379 -0.0156936 1.36677)
(0.0231494 -0.0181395 1.26458)
(0.0243795 -0.0243795 1.42938)
(0.0213914 -0.0301742 1.54374)
(0.0146363 -0.0346861 1.61603)
(0.00519831 -0.0371533 1.651)
(-0.00519823 -0.0371533 1.651)
(-0.0146363 -0.0346861 1.61603)
(-0.0213913 -0.0301742 1.54374)
(-0.0243794 -0.0243795 1.42938)
(-0.0231494 -0.0181395 1.26458)
(0.0175934 -0.0175934 1.1293)
(0.0181395 -0.0231494 1.26458)
(0.0156937 -0.0282379 1.36677)
(0.0106825 -0.0322345 1.43514)
(0.00378902 -0.0344323 1.46924)
(-0.00378894 -0.0344323 1.46924)
(-0.0106825 -0.0322344 1.43514)
(-0.0156936 -0.0282379 1.36677)
(-0.0181395 -0.0231494 1.26458)
(-0.0175934 -0.0175934 1.1293)
(0.00911974 0.00911975 1.11711)
(0.00954267 0.0121596 1.25663)
(0.00838318 0.0150161 1.36387)
(0.00577081 0.0172966 1.43664)
(0.00205887 0.0185634 1.4733)
(-0.00205878 0.0185634 1.4733)
(-0.00577073 0.0172966 1.43664)
(-0.00838311 0.0150162 1.36387)
(-0.0095426 0.0121596 1.25663)
(-0.00911969 0.00911977 1.11711)
(0.0121596 0.00954268 1.25663)
(0.0130698 0.0130698 1.42944)
(0.0116856 0.0164394 1.5525)
(0.00810293 0.0191161 1.63208)
(0.00289774 0.0205983 1.67117)
(-0.00289765 0.0205984 1.67117)
(-0.00810284 0.0191161 1.63208)
(-0.0116855 0.0164394 1.5525)
(-0.0130697 0.0130698 1.42944)
(-0.0121595 0.0095427 1.25663)
(0.0150161 0.00838319 1.36387)
(0.0164394 0.0116856 1.5525)
(0.0148559 0.0148559 1.6848)
(0.0103427 0.0173519 1.76869)
(0.00370404 0.0187281 1.80931)
(-0.00370394 0.0187281 1.80931)
(-0.0103426 0.017352 1.76869)
(-0.0148558 0.0148559 1.6848)
(-0.0164393 0.0116856 1.5525)
(-0.0150161 0.0083832 1.36387)
(0.0172965 0.00577081 1.43664)
(0.0191161 0.00810293 1.63208)
(0.0173519 0.0103427 1.76869)
(0.0120986 0.0120986 1.85458)
(0.00433536 0.0130644 1.89588)
(-0.00433525 0.0130644 1.89588)
(-0.0120985 0.0120986 1.85458)
(-0.0173519 0.0103427 1.76869)
(-0.019116 0.00810294 1.63208)
(-0.0172965 0.00577082 1.43664)
(0.0185634 0.00205885 1.4733)
(0.0205983 0.00289773 1.67117)
(0.0187281 0.00370404 1.80931)
(0.0130644 0.00433535 1.89588)
(0.00468231 0.00468231 1.93736)
(-0.0046822 0.00468231 1.93736)
(-0.0130643 0.00433535 1.89588)
(-0.018728 0.00370404 1.80931)
(-0.0205983 0.00289774 1.67117)
(-0.0185633 0.00205886 1.4733)
(0.0185634 -0.00205879 1.4733)
(0.0205983 -0.00289766 1.67117)
(0.0187281 -0.00370395 1.80931)
(0.0130644 -0.00433526 1.89588)
(0.0046823 -0.00468221 1.93736)
(-0.0046822 -0.00468221 1.93736)
(-0.0130643 -0.00433527 1.89588)
(-0.018728 -0.00370396 1.80931)
(-0.0205983 -0.00289766 1.67117)
(-0.0185633 -0.00205878 1.4733)
(0.0172965 -0.00577075 1.43664)
(0.0191161 -0.00810286 1.63208)
(0.0173519 -0.0103427 1.76869)
(0.0120986 -0.0120985 1.85458)
(0.00433535 -0.0130643 1.89588)
(-0.00433525 -0.0130643 1.89588)
(-0.0120985 -0.0120985 1.85458)
(-0.0173519 -0.0103427 1.76869)
(-0.019116 -0.00810286 1.63208)
(-0.0172965 -0.00577074 1.43664)
(0.0150161 -0.00838314 1.36387)
(0.0164394 -0.0116855 1.5525)
(0.0148559 -0.0148558 1.6848)
(0.0103427 -0.0173519 1.76869)
(0.00370404 -0.018728 1.80931)
(-0.00370394 -0.018728 1.80931)
(-0.0103426 -0.0173519 1.76869)
(-0.0148558 -0.0148558 1.6848)
(-0.0164393 -0.0116855 1.5525)
(-0.0150161 -0.00838313 1.36387)
(0.0121596 -0.00954264 1.25663)
(0.0130698 -0.0130697 1.42944)
(0.0116856 -0.0164393 1.5525)
(0.00810294 -0.019116 1.63208)
(0.00289775 -0.0205983 1.67117)
(-0.00289764 -0.0205983 1.67117)
(-0.00810284 -0.019116 1.63208)
(-0.0116855 -0.0164393 1.5525)
(-0.0130697 -0.0130697 1.42944)
(-0.0121595 -0.00954263 1.25663)
(0.00911976 -0.00911973 1.11711)
(0.00954268 -0.0121596 1.25663)
(0.0083832 -0.0150161 1.36387)
(0.00577082 -0.0172965 1.43664)
(0.00205887 -0.0185633 1.4733)
(-0.00205877 -0.0185633 1.4733)
(-0.00577072 -0.0172965 1.43664)
(-0.0083831 -0.0150161 1.36387)
(-0.0095426 -0.0121596 1.25663)
(-0.00911969 -0.00911971 1.11711)
(0.00503657 0.00503657 1.10828)
(0.00532509 0.00671707 1.25012)
(0.00471057 0.00830971 1.3602)
(0.0032594 0.00959355 1.43552)
(0.00116615 0.0103114 1.47367)
(-0.00116604 0.0103114 1.47367)
(-0.00325929 0.00959356 1.43552)
(-0.00471047 0.00830972 1.3602)
(-0.005325 0.00671709 1.25012)
(-0.0050365 0.0050366 1.10828)
(0.00671706 0.0053251 1.25012)
(0.00730227 0.00730228 1.42731)
(0.00658907 0.00921809 1.55531)
(0.00460081 0.0107598 1.63915)
(0.00165153 0.0116207 1.68069)
(-0.0016514 0.0116207 1.68069)
(-0.00460069 0.0107598 1.63915)
(-0.00658896 0.00921811 1.55531)
(-0.00730217 0.0073023 1.42731)
(-0.00671699 0.00532512 1.25012)
(0.0083097 0.00471057 1.3602)
(0.00921808 0.00658906 1.55531)
(0.00842527 0.00842527 1.69468)
(0.00591588 0.00989333 1.78453)
(0.00212833 0.0107107 1.82856)
(-0.00212819 0.0107107 1.82856)
(-0.00591575 0.00989335 1.78453)
(-0.00842516 0.00842529 1.69468)
(-0.00921799 0.00658909 1.55531)
(-0.00830963 0.00471059 1.3602)
(0.00959353 0.00325939 1.43552)
(0.0107598 0.0046008 1.63915)
(0.00989333 0.00591587 1.78453)
(0.00696453 0.00696452 1.87776)
(0.0025084 0.0075476 1.92322)
(-0.00250825 0.00754761 1.92322)
(-0.00696439 0.00696453 1.87776)
(-0.00989322 0.00591589 1.78453)
(-0.0107597 0.00460082 1.63915)
(-0.00959347 0.00325941 1.43552)
(0.0103113 0.00116613 1.47367)
(0.0116207 0.00165151 1.68069)
(0.0107107 0.00212831 1.82856)
(0.00754761 0.00250839 1.92322)
(0.00271966 0.00271965 1.96928)
(-0.00271951 0.00271964 1.96928)
(-0.00754747 0.00250839 1.92322)
(-0.0107106 0.00212832 1.82856)
(-0.0116206 0.00165152 1.68069)
(-0.0103113 0.00116615 1.47367)
(0.0103114 -0.00116607 1.47367)
(0.0116207 -0.00165142 1.68069)
(0.0107107 -0.00212822 1.82856)
(0.00754761 -0.00250828 1.92322)
(0.00271965 -0.00271953 1.96928)
(-0.00271951 -0.00271953 1.96928)
(-0.00754748 -0.00250828 1.92322)
(-0.0107106 -0.00212822 1.82856)
(-0.0116206 -0.00165142 1.68069)
(-0.0103113 -0.00116605 1.47367)
(0.00959354 -0.00325932 1.43552)
(0.0107598 -0.00460072 1.63915)
(0.00989334 -0.00591579 1.78453)
(0.00696453 -0.00696443 1.87776)
(0.0025084 -0.00754751 1.92322)
(-0.00250826 -0.00754751 1.92322)
(-0.0069644 -0.00696443 1.87776)
(-0.00989322 -0.00591578 1.78453)
(-0.0107597 -0.00460072 1.63915)
(-0.00959346 -0.00325931 1.43552)
(0.00830971 -0.00471051 1.3602)
(0.0092181 -0.006589 1.55531)
(0.00842528 -0.0084252 1.69468)
(0.00591588 -0.00989326 1.78453)
(0.00212833 -0.0107106 1.82856)
(-0.00212819 -0.0107106 1.82856)
(-0.00591575 -0.00989325 1.78453)
(-0.00842516 -0.00842519 1.69468)
(-0.00921799 -0.00658899 1.55531)
(-0.00830962 -0.0047105 1.3602)
(0.00671707 -0.00532505 1.25012)
(0.00730228 -0.00730222 1.42731)
(0.00658908 -0.00921803 1.55531)
(0.00460082 -0.0107597 1.63915)
(0.00165154 -0.0116206 1.68069)
(-0.00165139 -0.0116206 1.68069)
(-0.00460068 -0.0107597 1.63915)
(-0.00658895 -0.00921803 1.55531)
(-0.00730217 -0.00730221 1.42731)
(-0.00671699 -0.00532504 1.25012)
(0.00503659 -0.00503654 1.10828)
(0.00532511 -0.00671704 1.25012)
(0.00471059 -0.00830967 1.3602)
(0.00325942 -0.0095935 1.43552)
(0.00116617 -0.0103113 1.47367)
(-0.00116603 -0.0103113 1.47367)
(-0.00325929 -0.0095935 1.43552)
(-0.00471047 -0.00830966 1.3602)
(-0.005325 -0.00671703 1.25012)
(-0.0050365 -0.00503653 1.10828)
(0.00279517 0.00279517 1.10386)
(0.00296688 0.00373867 1.24689)
(0.0026372 0.00463937 1.35849)
(0.00183176 0.00536912 1.43519)
(0.000656757 0.00577851 1.47416)
(-0.000656613 0.00577852 1.47416)
(-0.00183162 0.00536914 1.43519)
(-0.00263707 0.00463939 1.35849)
(-0.00296678 0.0037387 1.24689)
(-0.00279508 0.0027952 1.10386)
(0.00373867 0.00296689 1.24689)
(0.0040874 0.0040874 1.4264)
(0.00371075 0.00518302 1.5571)
(0.00260335 0.00607104 1.64331)
(0.000936951 0.00656927 1.68624)
(-0.000936785 0.00656928 1.68624)
(-0.0026032 0.00607106 1.64331)
(-0.00371061 0.00518305 1.5571)
(-0.00408729 0.00408744 1.4264)
(-0.00373858 0.00296692 1.24689)
(0.00463937 0.00263719 1.35849)
(0.00518302 0.00371074 1.5571)
(0.00477166 0.00477165 1.70041)
(0.00336935 0.00562767 1.79367)
(0.00121591 0.00610716 1.83967)
(-0.00121573 0.00610717 1.83967)
(-0.00336918 0.00562769 1.79367)
(-0.00477151 0.00477167 1.70041)
(-0.0051829 0.00371077 1.5571)
(-0.00463927 0.00263722 1.35849)
(0.00536912 0.00183174 1.43519)
(0.00607104 0.00260333 1.64331)
(0.00562769 0.00336933 1.79367)
(0.00398669 0.00398667 1.89117)
(0.00144082 0.00433233 1.93908)
(-0.00144063 0.00433233 1.93908)
(-0.00398651 0.00398669 1.89117)
(-0.00562753 0.00336935 1.79367)
(-0.00607092 0.00260336 1.64331)
(-0.00536903 0.00183177 1.43519)
(0.00577851 0.000656724 1.47416)
(0.00656928 0.000936917 1.68624)
(0.00610717 0.00121588 1.83967)
(0.00433235 0.00144079 1.93908)
(0.00156675 0.00156673 1.98787)
(-0.00156656 0.00156673 1.98787)
(-0.00433216 0.0014408 1.93908)
(-0.00610701 0.0012159 1.83967)
(-0.00656915 0.000936944 1.68624)
(-0.00577842 0.000656759 1.47416)
(0.00577851 -0.000656653 1.47416)
(0.00656928 -0.000936822 1.68624)
(0.00610718 -0.00121577 1.83967)
(0.00433235 -0.00144066 1.93908)
(0.00156675 -0.0015666 1.98787)
(-0.00156656 -0.0015666 1.98787)
(-0.00433217 -0.00144066 1.93908)
(-0.00610701 -0.00121576 1.83967)
(-0.00656915 -0.00093681 1.68624)
(-0.00577841 -0.000656626 1.47416)
(0.00536913 -0.00183166 1.43519)
(0.00607106 -0.00260324 1.64331)
(0.0056277 -0.00336923 1.79367)
(0.0039867 -0.00398656 1.89117)
(0.00144082 -0.00433222 1.93908)
(-0.00144063 -0.00433221 1.93908)
(-0.00398652 -0.00398656 1.89117)
(-0.00562753 -0.00336922 1.79368)
(-0.00607091 -0.00260323 1.64331)
(-0.00536902 -0.00183164 1.43519)
(0.00463938 -0.00263712 1.35849)
(0.00518304 -0.00371066 1.5571)
(0.00477167 -0.00477156 1.70041)
(0.00336936 -0.00562758 1.79367)
(0.00121592 -0.00610706 1.83967)
(-0.00121573 -0.00610705 1.83967)
(-0.00336918 -0.00562757 1.79368)
(-0.00477151 -0.00477155 1.70041)
(-0.0051829 -0.00371064 1.5571)
(-0.00463927 -0.0026371 1.35849)
(0.00373868 -0.00296683 1.24689)
(0.00408742 -0.00408734 1.4264)
(0.00371077 -0.00518295 1.5571)
(0.00260337 -0.00607096 1.64331)
(0.000936967 -0.00656918 1.68624)
(-0.000936772 -0.00656918 1.68624)
(-0.00260319 -0.00607096 1.64331)
(-0.0037106 -0.00518295 1.5571)
(-0.00408728 -0.00408733 1.4264)
(-0.00373858 -0.00296682 1.24689)
(0.00279519 -0.00279513 1.10386)
(0.00296691 -0.00373863 1.24689)
(0.00263723 -0.00463932 1.35849)
(0.00183178 -0.00536907 1.43519)
(0.000656781 -0.00577845 1.47416)
(-0.000656598 -0.00577845 1.47416)
(-0.00183161 -0.00536907 1.43519)
(-0.00263707 -0.00463932 1.35849)
(-0.00296677 -0.00373862 1.24689)
(-0.00279508 -0.00279512 1.10386)
(0.00159764 0.00159763 1.10116)
(0.00169956 0.00213548 1.24487)
(0.0015131 0.00264976 1.35733)
(0.00105241 0.00306746 1.43483)
(0.000377662 0.00330221 1.47427)
(-0.000377481 0.00330222 1.47427)
(-0.00105224 0.00306748 1.43483)
(-0.00151296 0.00264979 1.35733)
(-0.00169943 0.00213553 1.24487)
(-0.00159754 0.00159768 1.10116)
(0.00213549 0.00169955 1.24487)
(0.00234016 0.00234015 1.42569)
(0.00212938 0.00296888 1.55794)
(0.00149692 0.00348047 1.64552)
(0.000539408 0.00376827 1.68925)
(-0.000539199 0.00376828 1.68925)
(-0.00149673 0.00348049 1.64552)
(-0.00212921 0.00296891 1.55794)
(-0.00234002 0.0023402 1.42569)
(-0.00213537 0.0016996 1.24487)
(0.00264977 0.00151309 1.35733)
(0.00296889 0.00212936 1.55794)
(0.00274177 0.00274175 1.70352)
(0.00194119 0.00323843 1.79876)
(0.000701631 0.00351762 1.84592)
(-0.000701409 0.00351763 1.84592)
(-0.00194098 0.00323845 1.79876)
(-0.00274158 0.00274178 1.70352)
(-0.00296874 0.00212941 1.55794)
(-0.00264964 0.00151314 1.35733)
(0.00306747 0.00105238 1.43483)
(0.00348048 0.00149688 1.64552)
(0.00323846 0.00194116 1.79876)
(0.00230146 0.00230142 1.89875)
(0.000833301 0.00250398 1.94811)
(-0.000833063 0.00250399 1.94811)
(-0.00230123 0.00230144 1.89875)
(-0.00323826 0.00194119 1.79876)
(-0.00348032 0.00149693 1.64552)
(-0.00306735 0.00105243 1.43483)
(0.00330222 0.000377616 1.47427)
(0.00376829 0.00053936 1.68925)
(0.00351765 0.000701588 1.84592)
(0.00250402 0.000833262 1.94811)
(0.000907364 0.000907329 1.99852)
(-0.000907121 0.000907332 1.99852)
(-0.00250378 0.000833274 1.94811)
(-0.00351744 0.000701616 1.84592)
(-0.00376811 0.000539401 1.68925)
(-0.0033021 0.000377665 1.47427)
(0.00330223 -0.000377535 1.47427)
(0.00376829 -0.000539251 1.68925)
(0.00351766 -0.000701459 1.84592)
(0.00250403 -0.000833107 1.94811)
(0.000907367 -0.000907162 1.99852)
(-0.000907122 -0.00090716 1.99852)
(-0.00250379 -0.000833099 1.94811)
(-0.00351744 -0.000701439 1.84592)
(-0.00376811 -0.000539224 1.68925)
(-0.0033021 -0.000377493 1.47427)
(0.00306749 -0.00105229 1.43483)
(0.0034805 -0.00149678 1.64552)
(0.00323848 -0.00194103 1.79876)
(0.00230147 -0.00230128 1.89875)
(0.000833306 -0.00250384 1.94811)
(-0.000833062 -0.00250383 1.94811)
(-0.00230123 -0.00230127 1.89875)
(-0.00323826 -0.00194101 1.79876)
(-0.00348031 -0.00149676 1.64552)
(-0.00306735 -0.00105226 1.43483)
(0.00264978 -0.00151301 1.35733)
(0.00296892 -0.00212927 1.55794)
(0.00274179 -0.00274163 1.70352)
(0.00194121 -0.00323831 1.79876)
(0.000701645 -0.00351749 1.84592)
(-0.000701397 -0.00351748 1.84592)
(-0.00194097 -0.0032383 1.79876)
(-0.00274158 -0.00274162 1.70352)
(-0.00296873 -0.00212925 1.55794)
(-0.00264964 -0.00151299 1.35733)
(0.00213551 -0.00169948 1.24487)
(0.00234019 -0.00234008 1.42569)
(0.00212942 -0.00296879 1.55794)
(0.00149695 -0.00348037 1.64552)
(0.000539432 -0.00376816 1.68925)
(-0.000539182 -0.00376815 1.68925)
(-0.00149672 -0.00348036 1.64552)
(-0.00212921 -0.00296878 1.55794)
(-0.00234002 -0.00234007 1.42569)
(-0.00213538 -0.00169947 1.24487)
(0.00159767 -0.00159759 1.10116)
(0.00169959 -0.00213543 1.24487)
(0.00151314 -0.00264969 1.35733)
(0.00105244 -0.00306739 1.43483)
(0.000377693 -0.00330213 1.47427)
(-0.00037746 -0.00330214 1.47427)
(-0.00105223 -0.0030674 1.43483)
(-0.00151295 -0.0026497 1.35733)
(-0.00169942 -0.00213542 1.24487)
(-0.00159755 -0.00159759 1.10117)
(0.000919245 0.000919237 1.09967)
(0.000978336 0.00122936 1.24375)
(0.000871844 0.0015263 1.3567)
(0.000606937 0.00176773 1.43465)
(0.000217947 0.00190352 1.47437)
(-0.000217736 0.00190353 1.47437)
(-0.000606736 0.00176776 1.43465)
(-0.000871667 0.00152634 1.3567)
(-0.000978178 0.00122941 1.24375)
(-0.000919131 0.000919301 1.09967)
(0.00122937 0.000978325 1.24375)
(0.0013483 0.00134828 1.42531)
(0.00122844 0.00171212 1.55844)
(0.00086459 0.00200871 1.64681)
(0.0003118 0.00217577 1.69101)
(-0.000311555 0.00217578 1.69101)
(-0.000864352 0.00200873 1.64681)
(-0.00122823 0.00171216 1.55844)
(-0.00134813 0.00134834 1.42531)
(-0.00122924 0.000978389 1.24375)
(0.00152632 0.000871823 1.3567)
(0.00171215 0.0012284 1.55844)
(0.00158378 0.00158374 1.70532)
(0.00112301 0.00187271 1.80171)
(0.000406298 0.00203544 1.84953)
(-0.000406033 0.00203545 1.84953)
(-0.00112275 0.00187274 1.80171)
(-0.00158355 0.00158379 1.70532)
(-0.00171195 0.00122847 1.55844)
(-0.00152617 0.000871897 1.3567)