/*--------------------------------*- C++ -*----------------------------------*\
| =========                 |                                                 |
| \\      /  F ield         | OpenFOAM: The Open Source CFD Toolbox           |
|  \\    /   O peration     | Version:  2412                                  |
|   \\  /    A nd           | Website:  www.openfoam.com                      |
|    \\/     M anipulation  |                                                 |
\*---------------------------------------------------------------------------*/
FoamFile
{
    version     2.0;
    format      ascii;
    arch        "LSB;label=32;scalar=64";
    class       surfaceScalarField;
    location    "0.2";
    object      phi;
}
// * * * * * * * * * * * * * * * * * * * * * * * * * * * * * * * * * * * * * //

dimensions      [0 3 -1 0 0 0 0];

oriented        oriented;

internalField   nonuniform List<scalar> 
43700
(
2.74156e-08
2.74156e-08
4.8186e-07
-3.33361e-08
-3.33361e-08
1.94652e-08
2.27244e-08
5.21055e-07
-2.64452e-08
1.28693e-08
2.0641e-08
5.50896e-07
-2.55111e-08
6.39659e-09
1.92624e-08
5.71015e-07
-2.40926e-08
1.43408e-14
1.86018e-08
5.81142e-07
-2.34184e-08
-6.39657e-09
1.86018e-08
5.81142e-07
-2.34184e-08
-1.28693e-08
1.92625e-08
5.71015e-07
-2.40926e-08
-1.94652e-08
2.0641e-08
5.50896e-07
-2.55112e-08
-2.74156e-08
2.27244e-08
5.21055e-07
-2.64452e-08
2.74156e-08
4.8186e-07
-3.33361e-08
-3.33361e-08
2.27244e-08
1.94653e-08
5.21055e-07
-2.64452e-08
1.71085e-08
1.71085e-08
5.57075e-07
1.14208e-08
1.54956e-08
5.84523e-07
5.70718e-09
1.4428e-08
6.03045e-07
7.15767e-15
1.3907e-08
6.12374e-07
-5.70717e-09
1.3907e-08
6.12374e-07
-1.14208e-08
1.44281e-08
6.03045e-07
-1.71085e-08
1.54956e-08
5.84523e-07
-2.27244e-08
1.71085e-08
5.57075e-07
1.94652e-08
5.21055e-07
-2.64453e-08
2.0641e-08
1.28693e-08
5.50896e-07
-2.55112e-08
1.54956e-08
1.14208e-08
5.84523e-07
1.03325e-08
1.03325e-08
6.10199e-07
5.1641e-09
9.61163e-09
6.27547e-07
-3.45239e-15
9.25703e-09
6.36292e-07
-5.16411e-09
9.25704e-09
6.36292e-07
-1.03325e-08
9.61165e-09
6.27547e-07
-1.54956e-08
1.03325e-08
6.10199e-07
-2.0641e-08
1.14209e-08
5.84523e-07
1.28693e-08
5.50896e-07
-2.55111e-08
1.92624e-08
6.3966e-09
5.71015e-07
-2.40926e-08
1.4428e-08
5.7072e-09
6.03045e-07
9.61164e-09
5.1641e-09
6.27547e-07
4.80334e-09
4.80334e-09
6.44119e-07
-8.13902e-15
4.6251e-09
6.52477e-07
-4.80335e-09
4.6251e-09
6.52477e-07
-9.61164e-09
4.80335e-09
6.44119e-07
-1.4428e-08
5.16411e-09
6.27547e-07
-1.92624e-08
5.7072e-09
6.03045e-07
6.39662e-09
5.71015e-07
-2.40926e-08
1.86018e-08
1.90047e-14
5.81142e-07
-2.34184e-08
1.3907e-08
1.76934e-14
6.12374e-07
9.25703e-09
-2.87607e-15
6.36292e-07
4.6251e-09
-1.23656e-14
6.52477e-07
-1.23484e-14
-1.24322e-14
6.60643e-07
-4.62512e-09
-9.74119e-15
6.60643e-07
-9.25705e-09
-3.97819e-15
6.52477e-07
-1.3907e-08
-1.92311e-15
6.36292e-07
-1.86018e-08
7.76055e-15
6.12374e-07
1.67822e-14
5.81142e-07
-2.34183e-08
1.86018e-08
-6.39657e-09
5.81142e-07
-2.34184e-08
1.3907e-08
-5.70715e-09
6.12374e-07
9.25704e-09
-5.16411e-09
6.36292e-07
4.6251e-09
-4.80336e-09
6.52477e-07
-7.36515e-15
-4.62512e-09
6.60643e-07
-4.62512e-09
-4.62512e-09
6.60643e-07
-9.25705e-09
-4.80336e-09
6.52477e-07
-1.3907e-08
-5.16413e-09
6.36292e-07
-1.86018e-08
-5.70718e-09
6.12374e-07
-6.39657e-09
5.81142e-07
-2.34184e-08
1.92625e-08
-1.28693e-08
5.71015e-07
-2.40926e-08
1.4428e-08
-1.14208e-08
6.03045e-07
9.61165e-09
-1.03325e-08
6.27547e-07
4.80335e-09
-9.61165e-09
6.44119e-07
-2.66442e-15
-9.25704e-09
6.52477e-07
-4.80336e-09
-9.25705e-09
6.52477e-07
-9.61166e-09
-9.61166e-09
6.44119e-07
-1.4428e-08
-1.03325e-08
6.27547e-07
-1.92624e-08
-1.14209e-08
6.03045e-07
-1.28693e-08
5.71015e-07
-2.40926e-08
2.0641e-08
-1.94653e-08
5.50896e-07
-2.55112e-08
1.54956e-08
-1.71084e-08
5.84523e-07
1.03325e-08
-1.54956e-08
6.10199e-07
5.16411e-09
-1.4428e-08
6.27547e-07
-1.62845e-15
-1.3907e-08
6.36292e-07
-5.16412e-09
-1.3907e-08
6.36292e-07
-1.03325e-08
-1.4428e-08
6.27547e-07
-1.54956e-08
-1.54956e-08
6.10199e-07
-2.0641e-08
-1.71085e-08
5.84523e-07
-1.94652e-08
5.50896e-07
-2.55112e-08
2.27244e-08
-2.74156e-08
5.21055e-07
-2.64453e-08
1.71085e-08
-2.27243e-08
5.57075e-07
1.14209e-08
-2.0641e-08
5.84523e-07
5.7072e-09
-1.92624e-08
6.03045e-07
6.51614e-15
-1.86018e-08
6.12374e-07
-5.70719e-09
-1.86018e-08
6.12374e-07
-1.14208e-08
-1.92624e-08
6.03045e-07
-1.71085e-08
-2.0641e-08
5.84523e-07
-2.27244e-08
-2.27244e-08
5.57075e-07
-2.74156e-08
5.21055e-07
-2.64453e-08
2.74155e-08
4.8186e-07
-3.33361e-08
-3.33361e-08
1.94653e-08
5.21055e-07
-2.64453e-08
1.28693e-08
5.50896e-07
-2.55111e-08
6.39661e-09
5.71015e-07
-2.40926e-08
1.0833e-14
5.81142e-07
-2.34183e-08
-6.3966e-09
5.81142e-07
-2.34183e-08
-1.28693e-08
5.71015e-07
-2.40926e-08
-1.94652e-08
5.50896e-07
-2.55112e-08
-2.74156e-08
5.21055e-07
-2.64453e-08
4.8186e-07
-3.33361e-08
-3.33361e-08
1.09027e-08
1.09026e-08
4.83916e-07
-1.19311e-08
-1.19311e-08
8.51046e-09
1.02297e-08
5.23918e-07
-1.07001e-08
5.97096e-09
1.00775e-08
5.54386e-07
-1.10272e-08
3.0668e-09
9.931e-09
5.74919e-07
-1.09308e-08
3.14643e-14
9.84069e-09
5.85253e-07
-1.08848e-08
-3.06673e-09
9.84069e-09
5.85253e-07
-1.08848e-08
-5.97089e-09
9.93106e-09
5.74919e-07
-1.09309e-08
-8.51043e-09
1.00776e-08
5.54386e-07
-1.10272e-08
-1.09027e-08
1.02297e-08
5.23918e-07
-1.07001e-08
1.09026e-08
4.83916e-07
-1.19311e-08
-1.19311e-08
1.02297e-08
8.51044e-09
5.23918e-07
-1.07001e-08
8.38898e-09
8.38898e-09
5.60756e-07
5.92407e-09
8.24849e-09
5.88817e-07
3.0604e-09
8.10461e-09
6.07735e-07
-2.86122e-16
8.01869e-09
6.17257e-07
-3.0604e-09
8.01869e-09
6.17257e-07
-5.92406e-09
8.10466e-09
6.07735e-07
-8.38895e-09
8.24855e-09
5.88817e-07
-1.02296e-08
8.389e-09
5.60756e-07
8.51046e-09
5.23918e-07
-1.07001e-08
1.00775e-08
5.97092e-09
5.54386e-07
-1.10272e-08
8.24847e-09
5.92408e-09
5.88817e-07
5.8173e-09
5.81732e-09
6.15062e-07
3.00191e-09
5.70561e-09
6.32762e-07
-1.02616e-14
5.639e-09
6.41674e-07
-3.00193e-09
5.63901e-09
6.41674e-07
-5.81733e-09
5.70564e-09
6.32762e-07
-8.2485e-09
5.81736e-09
6.15062e-07
-1.00775e-08
5.9241e-09
5.88817e-07
5.97096e-09
5.54386e-07
-1.10272e-08
9.93099e-09
3.06679e-09
5.74919e-07
-1.09308e-08
8.1046e-09
3.0604e-09
6.07735e-07
5.7056e-09
3.00191e-09
6.32762e-07
2.94122e-09
2.94122e-09
6.49648e-07
-1.5466e-14
2.90507e-09
6.58152e-07
-2.94124e-09
2.90508e-09
6.58152e-07
-5.70561e-09
2.94124e-09
6.49648e-07
-8.1046e-09
3.00194e-09
6.32762e-07
-9.93099e-09
3.06041e-09
6.07735e-07
3.06679e-09
5.74919e-07
-1.09308e-08
9.84068e-09
2.77115e-14
5.85253e-07
-1.08848e-08
8.01869e-09
-9.09751e-16
6.17257e-07
5.639e-09
-1.19596e-14
6.41674e-07
2.90508e-09
-1.68294e-14
6.58152e-07
-1.64571e-14
-1.80632e-14
6.66453e-07
-2.9051e-09
-1.55124e-14
6.66453e-07
-5.63901e-09
-9.02208e-15
6.58152e-07
-8.01868e-09
-3.63138e-15
6.41674e-07
-9.84067e-09
-1.01582e-15
6.17257e-07
1.57691e-14
5.85253e-07
-1.08848e-08
9.84069e-09
-3.06673e-09
5.85253e-07
-1.08848e-08
8.01869e-09
-3.0604e-09
6.17257e-07
5.63901e-09
-3.00194e-09
6.41674e-07
2.90508e-09
-2.94124e-09
6.58152e-07
-1.35587e-14
-2.9051e-09
6.66453e-07
-2.90511e-09
-2.90511e-09
6.66453e-07
-5.63903e-09
-2.94125e-09
6.58152e-07
-8.01869e-09
-3.00194e-09
6.41674e-07
-9.84068e-09
-3.06042e-09
6.17257e-07
-3.06676e-09
5.85253e-07
-1.08848e-08
9.93107e-09
-5.97092e-09
5.74919e-07
-1.09309e-08
8.10465e-09
-5.92406e-09
6.07735e-07
5.70563e-09
-5.81733e-09
6.32762e-07
2.94124e-09
-5.70562e-09
6.49648e-07
-7.71279e-15
-5.63902e-09
6.58152e-07
-2.94125e-09
-5.63903e-09
6.58152e-07
-5.70564e-09
-5.70565e-09
6.49648e-07
-8.10464e-09
-5.81735e-09
6.32762e-07
-9.93103e-09
-5.92409e-09
6.07735e-07
-5.97094e-09
5.74919e-07
-1.09308e-08
1.00776e-08
-8.51046e-09
5.54386e-07
-1.10272e-08
8.24855e-09
-8.38894e-09
5.88817e-07
5.81737e-09
-8.24851e-09
6.15062e-07
3.00194e-09
-8.10461e-09
6.32762e-07
-3.86592e-15
-8.01868e-09
6.41674e-07
-3.00195e-09
-8.01869e-09
6.41674e-07
-5.81737e-09
-8.10464e-09
6.32762e-07
-8.24854e-09
-8.24852e-09
6.15062e-07
-1.00776e-08
-8.38897e-09
5.88817e-07
-8.51049e-09
5.54386e-07
-1.10272e-08
1.02297e-08
-1.09027e-08
5.23918e-07
-1.07001e-08
8.38899e-09
-1.02296e-08
5.60756e-07
5.9241e-09
-1.00775e-08
5.88817e-07
3.06042e-09
-9.931e-09
6.07735e-07
-1.2345e-15
-9.84067e-09
6.17257e-07
-3.06042e-09
-9.84068e-09
6.17257e-07
-5.92409e-09
-9.93103e-09
6.07735e-07
-8.38898e-09
-1.00775e-08
5.88817e-07
-1.02297e-08
-1.02297e-08
5.60756e-07
-1.09027e-08
5.23918e-07
-1.07001e-08
1.09026e-08
4.83916e-07
-1.19311e-08
-1.19311e-08
8.51048e-09
5.23918e-07
-1.07001e-08
5.97096e-09
5.54386e-07
-1.10272e-08
3.06679e-09
5.74919e-07
-1.09308e-08
1.60435e-14
5.85253e-07
-1.08848e-08
-3.06676e-09
5.85253e-07
-1.08848e-08
-5.97094e-09
5.74919e-07
-1.09308e-08
-8.51049e-09
5.54386e-07
-1.10272e-08
-1.09027e-08
5.23918e-07
-1.07002e-08
4.83916e-07
-1.19311e-08
-1.19311e-08
3.78468e-09
3.78467e-09
4.84165e-07
-3.90883e-09
-3.90882e-09
3.1107e-09
3.81026e-09
5.24521e-07
-3.73918e-09
2.25059e-09
3.94602e-09
5.55292e-07
-3.99202e-09
1.17733e-09
4.01459e-09
5.76046e-07
-4.06846e-09
1.99166e-14
4.04111e-09
5.86496e-07
-4.10681e-09
-1.17729e-09
4.0411e-09
5.86496e-07
-4.10682e-09
-2.25054e-09
4.01459e-09
5.76046e-07
-4.06847e-09
-3.11067e-09
3.94608e-09
5.55292e-07
-3.99204e-09
-3.7847e-09
3.81033e-09
5.24521e-07
-3.73921e-09
3.78465e-09
4.84165e-07
-3.90884e-09
-3.90882e-09
3.81027e-09
3.11066e-09
5.24521e-07
-3.73918e-09
3.28824e-09
3.28824e-09
5.618e-07
2.40752e-09
3.41252e-09
5.90232e-07
1.27071e-09
3.47471e-09
6.09411e-07
-1.55719e-15
3.49961e-09
6.19069e-07
-1.27071e-09
3.49961e-09
6.19069e-07
-2.40753e-09
3.47472e-09
6.09411e-07
-3.28822e-09
3.41254e-09
5.90232e-07
-3.81022e-09
3.28827e-09
5.618e-07
3.1107e-09
5.24521e-07
-3.73917e-09
3.94599e-09
2.25058e-09
5.55292e-07
-3.99201e-09
3.4125e-09
2.40752e-09
5.90232e-07
2.50026e-09
2.50027e-09
6.16886e-07
1.31942e-09
2.546e-09
6.34871e-07
-4.57713e-15
2.56406e-09
6.43929e-07
-1.31943e-09
2.56406e-09
6.43929e-07
-2.50027e-09
2.54601e-09
6.34871e-07
-3.4125e-09
2.50028e-09
6.16886e-07
-3.94599e-09
2.40754e-09
5.90232e-07
2.2506e-09
5.55292e-07
-3.992e-09
4.01458e-09
1.17733e-09
5.76046e-07
-4.06846e-09
3.4747e-09
1.2707e-09
6.09411e-07
2.546e-09
1.31942e-09
6.34871e-07
1.34336e-09
1.34336e-09
6.52053e-07
-8.83804e-15
1.3527e-09
6.60707e-07
-1.34337e-09
1.3527e-09
6.60707e-07
-2.546e-09
1.34336e-09
6.52053e-07
-3.4747e-09
1.31943e-09
6.34871e-07
-4.01458e-09
1.27071e-09
6.09411e-07
1.17734e-09
5.76046e-07
-4.06845e-09
4.0411e-09
1.8798e-14
5.86496e-07
-4.10681e-09
3.49961e-09
-7.10938e-15
6.19069e-07
2.56406e-09
-5.87504e-15
6.43929e-07
1.3527e-09
-9.96885e-15
6.60707e-07
-8.96818e-15
-1.0826e-14
6.69158e-07
-1.35271e-09
-9.29656e-15
6.69158e-07
-2.56407e-09
-7.44599e-15
6.60707e-07
-3.49961e-09
-3.46347e-15
6.43929e-07
-4.0411e-09
-2.8372e-15
6.19069e-07
2.01493e-14
5.86496e-07
-4.1068e-09
4.0411e-09
-1.17729e-09
5.86496e-07
-4.10682e-09
3.49961e-09
-1.27072e-09
6.19069e-07
2.56406e-09
-1.31943e-09
6.43929e-07
1.3527e-09
-1.34337e-09
6.60707e-07
-7.5669e-15
-1.35271e-09
6.69158e-07
-1.35271e-09
-1.35272e-09
6.69158e-07
-2.56407e-09
-1.34338e-09
6.60707e-07
-3.49962e-09
-1.31944e-09
6.43929e-07
-4.0411e-09
-1.27072e-09
6.19069e-07
-1.1773e-09
5.86496e-07
-4.1068e-09
4.01459e-09
-2.25053e-09
5.76046e-07
-4.06847e-09
3.47471e-09
-2.40754e-09
6.09411e-07
2.54601e-09
-2.50027e-09
6.34871e-07
1.34336e-09
-2.546e-09
6.52053e-07
-5.99233e-15
-2.56407e-09
6.60707e-07
-1.34337e-09
-2.56407e-09
6.60707e-07
-2.54601e-09
-2.54602e-09
6.52053e-07
-3.47471e-09
-2.50029e-09
6.34871e-07
-4.01458e-09
-2.40755e-09
6.09411e-07
-2.25054e-09
5.76046e-07
-4.06846e-09
3.94608e-09
-3.11067e-09
5.55292e-07
-3.99204e-09
3.41254e-09
-3.28824e-09
5.90232e-07
2.50029e-09
-3.41252e-09
6.16886e-07
1.31943e-09
-3.4747e-09
6.34871e-07
-3.90628e-15
-3.49961e-09
6.43929e-07
-1.31944e-09
-3.49962e-09
6.43929e-07
-2.50029e-09
-3.47472e-09
6.34871e-07
-3.41253e-09
-3.41253e-09
6.16886e-07
-3.94606e-09
-3.28824e-09
5.90232e-07
-3.11069e-09
5.55292e-07
-3.99202e-09
3.81033e-09
-3.7847e-09
5.24521e-07
-3.73921e-09
3.28827e-09
-3.81023e-09
5.618e-07
2.40754e-09
-3.94602e-09
5.90232e-07
1.27071e-09
-4.01457e-09
6.09411e-07
-4.04395e-15
-4.04109e-09
6.19069e-07
-1.27073e-09
-4.0411e-09
6.19069e-07
-2.40756e-09
-4.01459e-09
6.09411e-07
-3.28826e-09
-3.94605e-09
5.90232e-07
-3.81029e-09
-3.81027e-09
5.618e-07
-3.78469e-09
5.24521e-07
-3.73921e-09
3.78466e-09
4.84165e-07
-3.90883e-09
-3.90884e-09
3.1107e-09
5.24521e-07
-3.73918e-09
2.25059e-09
5.55292e-07
-3.99201e-09
1.17733e-09
5.76046e-07
-4.06844e-09
1.42803e-14
5.86496e-07
-4.10679e-09
-1.1773e-09
5.86496e-07
-4.1068e-09
-2.25057e-09
5.76046e-07
-4.06845e-09
-3.11071e-09
5.55292e-07
-3.99202e-09
-3.78469e-09
5.24521e-07
-3.7392e-09
4.84165e-07
-3.90886e-09
-3.90885e-09
1.32443e-09
1.32443e-09
4.84175e-07
-1.32977e-09
-1.32978e-09
1.11756e-09
1.38538e-09
5.24658e-07
-1.3158e-09
8.2144e-10
1.47536e-09
5.55544e-07
-1.43149e-09
4.33984e-10
1.52865e-09
5.76386e-07
-1.48068e-09
1.00468e-14
1.55331e-09
5.86882e-07
-1.50563e-09
-4.33958e-10
1.55331e-09
5.86882e-07
-1.50563e-09
-8.2141e-10
1.52865e-09
5.76386e-07
-1.48069e-09
-1.11755e-09
1.47539e-09
5.55544e-07
-1.43151e-09
-1.32446e-09
1.38546e-09
5.24658e-07
-1.31582e-09
1.32442e-09
4.84175e-07
-1.32978e-09
-1.32978e-09
1.3854e-09
1.11757e-09
5.24658e-07
-1.31581e-09
1.22934e-09
1.22934e-09
5.62112e-07
9.18508e-10
1.31682e-09
5.90701e-07
4.90648e-10
1.36982e-09
6.09998e-07
-6.16164e-16
1.39475e-09
6.19718e-07
-4.90653e-10
1.39475e-09
6.19718e-07
-9.18516e-10
1.36982e-09
6.09998e-07
-1.22933e-09
1.31684e-09
5.90701e-07
-1.38533e-09
1.22936e-09
5.62112e-07
1.11758e-09
5.24658e-07
-1.31578e-09
1.47536e-09
8.21444e-10
5.55544e-07
-1.4315e-09
1.31683e-09
9.18503e-10
5.90701e-07
9.86825e-10
9.86824e-10
6.17546e-07
5.27822e-10
1.02857e-09
6.35672e-07
-1.1695e-15
1.04822e-09
6.44803e-07
-5.27825e-10
1.04822e-09
6.44803e-07
-9.86824e-10
1.02857e-09
6.35672e-07
-1.31682e-09
9.86833e-10
6.17546e-07
-1.47535e-09
9.18517e-10
5.90701e-07
8.21457e-10
5.55544e-07
-1.43148e-09
1.52865e-09
4.33986e-10
5.76386e-07
-1.48068e-09
1.36981e-09
4.90643e-10
6.09998e-07
1.02856e-09
5.27821e-10
6.35672e-07
5.50675e-10
5.50676e-10
6.53009e-07
-3.49091e-15
5.6143e-10
6.61745e-07
-5.5068e-10
5.6143e-10
6.61745e-07
-1.02857e-09
5.50676e-10
6.53009e-07
-1.36981e-09
5.27825e-10
6.35672e-07
-1.52864e-09
4.90653e-10
6.09998e-07
4.33997e-10
5.76386e-07
-1.48067e-09
1.55331e-09
1.28857e-14
5.86882e-07
-1.50563e-09
1.39475e-09
-6.76837e-15
6.19718e-07
1.04822e-09
-2.75379e-15
6.44803e-07
5.6143e-10
-3.78806e-15
6.61745e-07
-4.26659e-15
-4.95198e-15
6.70281e-07
-5.61437e-10
-5.65988e-15
6.70281e-07
-1.04822e-09
-5.26035e-15
6.61745e-07
-1.39474e-09
-3.67227e-15
6.44803e-07
-1.5533e-09
-3.34554e-15
6.19718e-07
1.98396e-14
5.86882e-07
-1.50562e-09
1.55331e-09
-4.33957e-10
5.86882e-07
-1.50563e-09
1.39475e-09
-4.90659e-10
6.19718e-07
1.04822e-09
-5.27827e-10
6.44803e-07
5.6143e-10
-5.50681e-10
6.61745e-07
-5.14141e-15
-5.61437e-10
6.70281e-07
-5.6144e-10
-5.6144e-10
6.70281e-07
-1.04822e-09
-5.50687e-10
6.61745e-07
-1.39475e-09
-5.27833e-10
6.44803e-07
-1.5533e-09
-4.9066e-10
6.19718e-07
-4.33954e-10
5.86882e-07
-1.50562e-09
1.52865e-09
-8.2141e-10
5.76386e-07
-1.48069e-09
1.36982e-09
-9.18524e-10
6.09998e-07
1.02857e-09
-9.86828e-10
6.35672e-07
5.50677e-10
-1.02857e-09
6.53009e-07
-5.16026e-15
-1.04822e-09
6.61745e-07
-5.50687e-10
-1.04823e-09
6.61745e-07
-1.02858e-09
-1.02858e-09
6.53009e-07
-1.36982e-09
-9.86841e-10
6.35672e-07
-1.52865e-09
-9.1853e-10
6.09998e-07
-8.2141e-10
5.76386e-07
-1.48068e-09
1.47539e-09
-1.11756e-09
5.55544e-07
-1.4315e-09
1.31684e-09
-1.22934e-09
5.90701e-07
9.86833e-10
-1.31682e-09
6.17546e-07
5.27825e-10
-1.36981e-09
6.35672e-07
-3.84122e-15
-1.39475e-09
6.44803e-07
-5.27832e-10
-1.39475e-09
6.44803e-07
-9.86838e-10
-1.36983e-09
6.35672e-07
-1.31684e-09
-1.31684e-09
6.17546e-07
-1.47539e-09
-1.22935e-09
5.90701e-07
-1.11757e-09
5.55544e-07
-1.43149e-09
1.38545e-09
-1.32447e-09
5.24658e-07
-1.31582e-09
1.22936e-09
-1.38536e-09
5.62112e-07
9.18522e-10
-1.47535e-09
5.90701e-07
4.90653e-10
-1.52864e-09
6.09998e-07
-4.00332e-15
-1.5533e-09
6.19718e-07
-4.90663e-10
-1.55331e-09
6.19718e-07
-9.18534e-10
-1.52865e-09
6.09998e-07
-1.22935e-09
-1.47539e-09
5.90701e-07
-1.38542e-09
-1.38539e-09
5.62112e-07
-1.32446e-09
5.24658e-07
-1.31581e-09
1.32443e-09
4.84175e-07
-1.32979e-09
-1.32978e-09
1.11758e-09
5.24658e-07
-1.3158e-09
8.21455e-10
5.55544e-07
-1.43148e-09
4.33997e-10
5.76386e-07
-1.48067e-09
1.79379e-14
5.86882e-07
-1.50562e-09
-4.3396e-10
5.86882e-07
-1.50562e-09
-8.2142e-10
5.76386e-07
-1.48068e-09
-1.11758e-09
5.55544e-07
-1.43149e-09
-1.32445e-09
5.24658e-07
-1.31581e-09
4.84175e-07
-1.3298e-09
-1.3298e-09
4.64512e-10
4.64506e-10
4.84164e-07
-4.58878e-10
-4.58874e-10
3.98066e-10
4.97881e-10
5.2469e-07
-4.63868e-10
2.95452e-10
5.39725e-10
5.55618e-07
-5.1098e-10
1.57035e-10
5.65848e-10
5.76492e-07
-5.33493e-10
8.78256e-15
5.78462e-10
5.87006e-07
-5.45019e-10
-1.57015e-10
5.78458e-10
5.87006e-07
-5.45017e-10
-2.95425e-10
5.65845e-10
5.76492e-07
-5.33495e-10
-3.9805e-10
5.39746e-10
5.55618e-07
-5.10989e-10
-4.64548e-10
4.97955e-10
5.2469e-07
-4.63892e-10
4.64498e-10
4.84164e-07
-4.58893e-10
-4.58886e-10
4.97878e-10
3.9806e-10
5.2469e-07
-4.6387e-10
4.49268e-10
4.49267e-10
5.6221e-07
3.39817e-10
4.91097e-10
5.90859e-07
1.82856e-10
5.17959e-10
6.10203e-07
-2.2702e-15
5.3111e-10
6.19948e-07
-1.82865e-10
5.3111e-10
6.19948e-07
-3.39831e-10
5.17962e-10
6.10203e-07
-4.49273e-10
4.91106e-10
5.90859e-07
-4.97845e-10
4.49293e-10
5.6221e-07
3.98071e-10
5.2469e-07
-4.63855e-10
5.39721e-10
2.95448e-10
5.55618e-07
-5.10978e-10
4.91095e-10
3.39813e-10
5.90859e-07
3.73195e-10
3.73196e-10
6.17782e-07
2.01297e-10
3.94919e-10
6.35967e-07
4.42711e-16
4.05585e-10
6.4513e-07
-2.01296e-10
4.05585e-10
6.4513e-07
-3.73191e-10
3.94919e-10
6.35967e-07
-4.91088e-10
3.73201e-10
6.17782e-07
-5.39705e-10
3.39829e-10
5.90859e-07
2.95463e-10
5.55618e-07
-5.10967e-10
5.65845e-10
1.57035e-10
5.76492e-07
-5.33491e-10
5.17956e-10
1.82854e-10
6.10203e-07
3.94916e-10
2.01297e-10
6.35967e-07
2.13391e-10
2.13391e-10
6.53372e-07
-4.63409e-16
2.19337e-10
6.62144e-07
-2.1339e-10
2.19336e-10
6.62144e-07
-3.94913e-10
2.13389e-10
6.53372e-07
-5.17949e-10
2.01298e-10
6.35967e-07
-5.6583e-10
1.82861e-10
6.10203e-07
1.57052e-10
5.76492e-07
-5.33481e-10
5.78459e-10
1.07424e-14
5.87006e-07
-5.45017e-10
5.31107e-10
-5.24874e-15
6.19948e-07
4.05584e-10
-4.42092e-16
6.4513e-07
2.19337e-10
-6.96429e-16
6.62144e-07
-1.74104e-15
-2.14511e-15
6.7072e-07
-2.1934e-10
-4.13495e-15
6.7072e-07
-4.05585e-10
-4.57233e-15
6.62144e-07
-5.31106e-10
-3.40454e-15
6.4513e-07
-5.78452e-10
-3.51728e-15
6.19948e-07
1.87749e-14
5.87006e-07
-5.45003e-10
5.78459e-10
-1.57013e-10
5.87006e-07
-5.45018e-10
5.31109e-10
-1.82866e-10
6.19948e-07
4.05584e-10
-2.01296e-10
6.4513e-07
2.19336e-10
-2.13391e-10
6.62144e-07
-3.54111e-15
-2.1934e-10
6.7072e-07
-2.19343e-10
-2.19343e-10
6.7072e-07
-4.05589e-10
-2.13398e-10
6.62144e-07
-5.3111e-10
-2.01304e-10
6.4513e-07
-5.78455e-10
-1.8287e-10
6.19948e-07
-1.57011e-10
5.87006e-07
-5.45009e-10
5.65841e-10
-2.95419e-10
5.76492e-07
-5.33494e-10
5.17958e-10
-3.39832e-10
6.10203e-07
3.94917e-10
-3.73194e-10
6.35967e-07
2.13389e-10
-3.94916e-10
6.53372e-07
-4.66585e-15
-4.05585e-10
6.62144e-07
-2.13398e-10
-4.0559e-10
6.62144e-07
-3.94924e-10
-3.94926e-10
6.53372e-07
-5.17961e-10
-3.73206e-10
6.35967e-07
-5.6584e-10
-3.3984e-10
6.10203e-07
-2.95422e-10
5.76492e-07
-5.3349e-10
5.39741e-10
-3.98043e-10
5.55618e-07
-5.10984e-10
4.91102e-10
-4.49274e-10
5.90859e-07
3.73199e-10
-4.91093e-10
6.17782e-07
2.01297e-10
-5.17952e-10
6.35967e-07
-4.56549e-15
-5.31105e-10
6.4513e-07
-2.01305e-10
-5.31112e-10
6.4513e-07
-3.73207e-10
-5.17964e-10
6.35967e-07
-4.91108e-10
-4.91107e-10
6.17782e-07
-5.39743e-10
-4.49284e-10
5.90859e-07
-3.98053e-10
5.55618e-07
-5.10982e-10
4.97949e-10
-4.64539e-10
5.2469e-07
-4.63889e-10
4.49294e-10
-4.9785e-10
5.6221e-07
3.39833e-10
-5.39712e-10
5.90859e-07
1.82862e-10
-5.65831e-10
6.10203e-07
-4.19558e-15
-5.78451e-10
6.19948e-07
-1.82873e-10
-5.78455e-10
6.19948e-07
-3.39844e-10
-5.65843e-10
6.10203e-07
-4.49292e-10
-5.39737e-10
5.90859e-07
-4.97915e-10
-4.97888e-10
5.6221e-07
-4.64533e-10
5.2469e-07
-4.63873e-10
4.64505e-10
4.84164e-07
-4.58893e-10
-4.58887e-10
3.98074e-10
5.2469e-07
-4.63857e-10
2.95459e-10
5.55618e-07
-5.10966e-10
1.57046e-10
5.76492e-07
-5.33479e-10
1.58022e-14
5.87006e-07
-5.45004e-10
-1.57017e-10
5.87006e-07
-5.45007e-10
-2.95433e-10
5.76492e-07
-5.33489e-10
-3.98065e-10
5.55618e-07
-5.10977e-10
-4.64528e-10
5.2469e-07
-4.63866e-10
4.84164e-07
-4.58898e-10
-4.58898e-10
1.63795e-10
1.63795e-10
4.84157e-07
-1.6043e-10
-1.6043e-10
1.41543e-10
1.78176e-10
5.24699e-07
-1.6421e-10
1.05645e-10
1.953e-10
5.55641e-07
-1.82305e-10
5.63456e-11
2.06298e-10
5.76526e-07
-1.91431e-10
5.16598e-15
2.11712e-10
5.87046e-07
-1.96138e-10
-5.63341e-11
2.11709e-10
5.87046e-07
-1.96136e-10
-1.0563e-10
2.06293e-10
5.76526e-07
-1.9143e-10
-1.41544e-10
1.95315e-10
5.55641e-07
-1.82305e-10
-1.63817e-10
1.78214e-10
5.24699e-07
-1.64229e-10
1.63788e-10
4.84157e-07
-1.60442e-10
-1.60435e-10
1.78172e-10
1.41552e-10
5.24699e-07
-1.64212e-10
1.62356e-10
1.62351e-10
5.62241e-07
1.23698e-10
1.79776e-10
5.90913e-07
6.68558e-11
1.91309e-10
6.10275e-07
-2.97361e-15
1.97063e-10
6.2003e-07
-6.68645e-11
1.97061e-10
6.2003e-07
-1.23711e-10
1.91308e-10
6.10275e-07
-1.62359e-10
1.79781e-10
5.90913e-07
-1.78152e-10
1.6237e-10
5.62241e-07
1.41554e-10
5.24699e-07
-1.64202e-10
1.95311e-10
1.05645e-10
5.55641e-07
-1.82305e-10
1.79782e-10
1.23697e-10
5.90913e-07
1.37795e-10
1.37792e-10
6.17866e-07
7.47159e-11
1.47264e-10
6.36074e-07
2.64401e-15
1.52009e-10
6.4525e-07
-7.47099e-11
1.52007e-10
6.4525e-07
-1.37786e-10
1.47261e-10
6.36074e-07
-1.79769e-10
1.37793e-10
6.17866e-07
-1.95288e-10
1.23706e-10
5.90913e-07
1.05662e-10
5.55641e-07
-1.82296e-10
2.06298e-10
5.63461e-11
5.76526e-07
-1.91431e-10
1.91307e-10
6.68547e-11
6.10275e-07
1.47262e-10
7.47142e-11
6.36074e-07
8.00387e-11
8.00395e-11
6.53507e-07
2.43757e-15
8.27122e-11
6.62294e-07
-8.00329e-11
8.27097e-11
6.62294e-07
-1.47253e-10
8.00344e-11
6.53507e-07
-1.91295e-10
7.47114e-11
6.36074e-07
-2.06279e-10
6.6857e-11
6.10275e-07
5.63631e-11
5.76526e-07
-1.91416e-10
2.1171e-10
6.63513e-15
5.87046e-07
-1.96138e-10
1.9706e-10
-3.58994e-15
6.2003e-07
1.52006e-10
1.35343e-15
6.4525e-07
8.2711e-11
1.79411e-15
6.62294e-07
1.14268e-16
3.01409e-16
6.70885e-07
-8.27106e-11
-2.4736e-15
6.70885e-07
-1.52005e-10
-4.18885e-15
6.62294e-07
-1.97056e-10
-3.74971e-15
6.4525e-07
-2.11703e-10
-4.64782e-15
6.2003e-07
1.78999e-14
5.87046e-07
-1.96125e-10
2.1171e-10
-5.63331e-11
5.87046e-07
-1.96137e-10
1.9706e-10
-6.68629e-11
6.2003e-07
1.52006e-10
-7.47105e-11
6.4525e-07
8.27096e-11
-8.00348e-11
6.62294e-07
-2.13646e-15
-8.27108e-11
6.70885e-07
-8.27136e-11
-8.27141e-11
6.70885e-07
-1.52009e-10
-8.00425e-11
6.62294e-07
-1.97061e-10
-7.47193e-11
6.4525e-07
-2.11706e-10
-6.68693e-11
6.2003e-07
-5.63252e-11
5.87046e-07
-1.9613e-10
2.06291e-10
-1.05628e-10
5.76526e-07
-1.91429e-10
1.91305e-10
-1.2371e-10
6.10275e-07
1.47259e-10
-1.37788e-10
6.36074e-07
8.00342e-11
-1.47258e-10
6.53507e-07
-4.16579e-15
-1.52006e-10
6.62294e-07
-8.00419e-11
-1.5201e-10
6.62294e-07
-1.47265e-10
-1.47268e-10
6.53507e-07
-1.91308e-10
-1.37801e-10
6.36074e-07
-2.06288e-10
-1.23721e-10
6.10275e-07
-1.05619e-10
5.76526e-07
-1.91427e-10
1.9531e-10
-1.41538e-10
5.55641e-07
-1.82304e-10
1.79779e-10
-1.62362e-10
5.90913e-07
1.37793e-10
-1.79772e-10
6.17866e-07
7.47116e-11
-1.913e-10
6.36074e-07
-4.54527e-15
-1.97056e-10
6.4525e-07
-7.47203e-11
-1.97062e-10
6.4525e-07
-1.37802e-10
-1.9131e-10
6.36074e-07
-1.79787e-10
-1.79786e-10
6.17866e-07
-1.95318e-10
-1.62374e-10
5.90913e-07
-1.41532e-10
5.55641e-07
-1.82309e-10
1.78225e-10
-1.63823e-10
5.24699e-07
-1.64227e-10
1.62372e-10
-1.78149e-10
5.62241e-07
1.23709e-10
-1.9529e-10
5.90913e-07
6.68588e-11
-2.06282e-10
6.10275e-07
-4.97715e-15
-2.11702e-10
6.2003e-07
-6.68711e-11
-2.11705e-10
6.2003e-07
-1.23723e-10
-2.0629e-10
6.10275e-07
-1.62377e-10
-1.95316e-10
5.90913e-07
-1.78204e-10
-1.78193e-10
5.62241e-07
-1.63811e-10
5.24699e-07
-1.64213e-10
1.63794e-10
4.84157e-07
-1.60444e-10
-1.60443e-10
1.41557e-10
5.24699e-07
-1.64198e-10
1.05656e-10
5.55641e-07
-1.82293e-10
5.63588e-11
5.76526e-07
-1.91419e-10
1.46877e-14
5.87046e-07
-1.96126e-10
-5.63291e-11
5.87046e-07
-1.96129e-10
-1.05626e-10
5.76526e-07
-1.91427e-10
-1.41539e-10
5.55641e-07
-1.82306e-10
-1.63812e-10
5.24699e-07
-1.64208e-10
4.84157e-07
-1.60446e-10
-1.60448e-10
5.80872e-11
5.80935e-11
4.84155e-07
-5.6662e-11
-5.66582e-11
5.03974e-11
6.37485e-11
5.24701e-07
-5.84092e-11
3.77274e-11
7.03456e-11
5.55648e-07
-6.51619e-11
2.01586e-11
7.46453e-11
5.76538e-07
-6.86541e-11
2.40337e-16
7.67846e-11
5.8706e-07
-7.04639e-11
-2.01595e-11
7.67826e-11
5.8706e-07
-7.04616e-11
-3.77297e-11
7.46423e-11
5.76538e-07
-6.86519e-11
-5.04181e-11
7.03558e-11
5.55648e-07
-6.51559e-11
-5.81194e-11
6.37758e-11
5.24701e-07
-5.84211e-11
5.80835e-11
4.84155e-07
-5.66698e-11
-5.66716e-11
6.37326e-11
5.04134e-11
5.24701e-07
-5.84041e-11
5.83911e-11
5.83968e-11
5.62252e-07
4.46716e-11
6.51834e-11
5.90932e-07
2.4204e-11
6.975e-11
6.103e-07
-3.33225e-15
7.20525e-11
6.20059e-07
-2.42131e-11
7.20525e-11
6.20059e-07
-4.46851e-11
6.97497e-11
6.103e-07
-5.83984e-11
6.51841e-11
5.90932e-07
-6.37276e-11
5.8406e-11
5.62252e-07
5.04152e-11
5.24701e-07
-5.84064e-11
7.03423e-11
3.77352e-11
5.55648e-07
-6.51545e-11
6.51829e-11
4.4674e-11
5.90932e-07
5.02122e-11
5.0214e-11
6.17896e-07
2.73121e-11
5.40024e-11
6.36112e-07
2.70285e-15
5.59211e-11
6.45293e-07
-2.7306e-11
5.59198e-11
6.45293e-07
-5.02044e-11
5.39995e-11
6.36112e-07
-6.51729e-11
5.02127e-11
6.17896e-07
-7.03276e-11
4.46783e-11
5.90932e-07
3.77447e-11
5.55648e-07
-6.51476e-11
7.46427e-11
2.0162e-11
5.76538e-07
-6.86499e-11
6.97484e-11
2.42049e-11
6.103e-07
5.40004e-11
2.73143e-11
6.36112e-07
2.94562e-11
2.94577e-11
6.53556e-07
3.19598e-15
3.05449e-11
6.62348e-07
-2.94493e-11
3.05426e-11
6.62348e-07
-5.39919e-11
2.94523e-11
6.53556e-07
-6.97367e-11
2.73093e-11
6.36112e-07
-7.46256e-11
2.42043e-11
6.103e-07
2.01767e-11
5.76538e-07
-6.8638e-11
7.6783e-11
3.97126e-15
5.8706e-07
-7.04631e-11
7.20508e-11
-1.80952e-15
6.20059e-07
5.59201e-11
3.95041e-15
6.45293e-07
3.05447e-11
3.65761e-15
6.62348e-07
1.35985e-15
1.50237e-15
6.70946e-07
-3.05418e-11
-1.18457e-15
6.70946e-07
-5.59165e-11
-3.10394e-15
6.62348e-07
-7.20458e-11
-3.6831e-15
6.45293e-07
-7.67759e-11
-5.97268e-15
6.20059e-07
1.41032e-14
5.8706e-07
-7.04528e-11
7.678e-11
-2.01551e-11
5.8706e-07
-7.04597e-11
7.20499e-11
-2.42112e-11
6.20059e-07
5.59189e-11
-2.73063e-11
6.45293e-07
3.05427e-11
-2.94497e-11
6.62348e-07
-1.46943e-15
-3.05412e-11
6.70946e-07
-3.05453e-11
-3.05445e-11
6.70946e-07
-5.59213e-11
-2.94577e-11
6.62348e-07
-7.20514e-11
-2.73159e-11
6.45293e-07
-7.67793e-11
-2.42187e-11
6.20059e-07
-2.01493e-11
5.8706e-07
-7.04561e-11
7.46355e-11
-3.77245e-11
5.76538e-07
-6.86469e-11
6.97471e-11
-4.46854e-11
6.103e-07
5.39982e-11
-5.02048e-11
6.36112e-07
2.94516e-11
-5.39925e-11
6.53556e-07
-3.603e-15
-5.5916e-11
6.62348e-07
-2.94583e-11
-5.592e-11
6.62348e-07
-5.40036e-11
-5.40026e-11
6.53556e-07
-6.97506e-11
-5.02177e-11
6.36112e-07
-7.46398e-11
-4.46941e-11
6.103e-07
-3.77229e-11
5.76538e-07
-6.8647e-11
7.03494e-11
-5.04052e-11
5.55648e-07
-6.51572e-11
6.51849e-11
-5.84026e-11
5.90932e-07
5.02123e-11
-6.51718e-11
6.17896e-07
2.73091e-11
-6.97382e-11
6.36112e-07
-3.1105e-15
-7.20457e-11
6.45293e-07
-2.73157e-11
-7.20494e-11
6.45293e-07
-5.02183e-11
-6.97487e-11
6.36112e-07
-6.51893e-11
-6.51879e-11
6.17896e-07
-7.03573e-11
-5.84109e-11
5.90932e-07
-5.04115e-11
5.55648e-07
-6.51582e-11
6.37996e-11
-5.81182e-11
5.24701e-07
-5.84317e-11
5.84043e-11
-6.37047e-11
5.62252e-07
4.46786e-11
-7.03309e-11
5.90932e-07
2.42071e-11
-7.46313e-11
6.103e-07
-3.76672e-15
-7.67753e-11
6.20059e-07
-2.42164e-11
-7.67774e-11
6.20059e-07
-4.46909e-11
-7.4639e-11
6.103e-07
-5.84053e-11
-7.03581e-11
5.90932e-07
-6.37551e-11
-6.37577e-11
5.62252e-07
-5.81011e-11
5.24701e-07
-5.84121e-11
5.80858e-11
4.84155e-07
-5.66684e-11
-5.66744e-11
5.04174e-11
5.24701e-07
-5.83929e-11
3.77451e-11
5.55648e-07
-6.51506e-11
2.01753e-11
5.76538e-07
-6.86422e-11
1.27855e-14
5.8706e-07
-7.04527e-11
-2.01476e-11
5.8706e-07
-7.04569e-11
-3.77186e-11
5.76538e-07
-6.86484e-11
-5.04055e-11
5.55648e-07
-6.51601e-11
-5.81019e-11
5.24701e-07
-5.84092e-11
4.84155e-07
-5.66746e-11
-5.66688e-11
2.07011e-11
2.06865e-11
4.84154e-07
-2.01431e-11
-2.01451e-11
1.80002e-11
2.28253e-11
5.24702e-07
-2.08522e-11
1.34904e-11
2.52848e-11
5.55651e-07
-2.33221e-11
7.215e-12
2.69044e-11
5.76542e-07
-2.46239e-11
1.5109e-15
2.77157e-11
5.87065e-07
-2.52992e-11
-7.21222e-12
2.77135e-11
5.87065e-07
-2.52973e-11
-1.34834e-11
2.6898e-11
5.76542e-07
-2.4622e-11
-1.79861e-11
2.52799e-11
5.55651e-07
-2.33213e-11
-2.07054e-11
2.28506e-11
5.24702e-07
-2.08593e-11
2.06901e-11
4.84154e-07
-2.01461e-11
-2.01491e-11
2.28151e-11
1.79845e-11
5.24702e-07
-2.08414e-11
2.09632e-11
2.09677e-11
5.62256e-07
1.60729e-11
2.3518e-11
5.90939e-07
8.721e-12
2.52506e-11
6.10309e-07
-5.10908e-16
2.61294e-11
6.20069e-07
-8.72295e-12
2.61275e-11
6.20069e-07
-1.60773e-11
2.52452e-11
6.10309e-07
-2.09661e-11
2.35108e-11
5.90939e-07
-2.27975e-11
2.09717e-11
5.62256e-07
1.79952e-11
5.24702e-07
-2.08343e-11
2.52765e-11
1.34855e-11
5.55651e-07
-2.33217e-11
2.35134e-11
1.6073e-11
5.90939e-07
1.81673e-11
1.81694e-11
6.17907e-07
9.9019e-12
1.96158e-11
6.36126e-07
4.86937e-15
2.0353e-11
6.45309e-07
-9.89214e-12
2.03508e-11
6.45309e-07
-1.81582e-11
1.96105e-11
6.36126e-07
-2.35068e-11
1.81636e-11
6.17907e-07
-2.52689e-11
1.60748e-11
5.90939e-07
1.34975e-11
5.55651e-07
-2.33173e-11
2.69038e-11
7.21244e-12
5.76542e-07
-2.46243e-11
2.52495e-11
8.72089e-12
6.10309e-07
1.96163e-11
9.90263e-12
6.36126e-07
1.0725e-11
1.07245e-11
6.53574e-07
5.02607e-15
1.11439e-11
6.62368e-07
-1.07151e-11
1.11417e-11
6.62368e-07
-1.96065e-11
1.07188e-11
6.53574e-07