/*--------------------------------*- C++ -*----------------------------------*\
| =========                 |                                                 |
| \\      /  F ield         | OpenFOAM: The Open Source CFD Toolbox           |
|  \\    /   O peration     | Version:  2412                                  |
|   \\  /    A nd           | Website:  www.openfoam.com                      |
|    \\/     M anipulation  |                                                 |
\*---------------------------------------------------------------------------*/
FoamFile
{
    version     2.0;
    format      ascii;
    arch        "LSB;label=32;scalar=64";
    class       surfaceScalarField;
    location    "6.5";
    object      phi;
}
// * * * * * * * * * * * * * * * * * * * * * * * * * * * * * * * * * * * * * //

dimensions      [0 3 -1 0 0 0 0];

oriented        oriented;

internalField   nonuniform List<scalar> 
43700
(
1.86446e-07
1.86446e-07
5.4976e-07
-2.26316e-07
-2.26316e-07
1.38171e-07
1.65776e-07
5.94064e-07
-2.02181e-07
9.16123e-08
1.52361e-07
6.25584e-07
-1.91956e-07
4.54879e-08
1.43364e-07
6.45828e-07
-1.83355e-07
-1.44826e-17
1.39018e-07
6.55774e-07
-1.79375e-07
-4.54879e-08
1.39018e-07
6.55774e-07
-1.79375e-07
-9.16123e-08
1.43364e-07
6.45828e-07
-1.83355e-07
-1.38171e-07
1.52361e-07
6.25584e-07
-1.91956e-07
-1.86446e-07
1.65776e-07
5.94064e-07
-2.02181e-07
1.86446e-07
5.4976e-07
-2.26316e-07
-2.26316e-07
1.65776e-07
1.38171e-07
5.94064e-07
-2.02181e-07
1.23432e-07
1.23432e-07
6.30529e-07
8.1351e-08
1.12123e-07
6.56009e-07
4.02824e-08
1.0452e-07
6.72409e-07
5.44444e-18
1.00785e-07
6.80488e-07
-4.02824e-08
1.00785e-07
6.80488e-07
-8.1351e-08
1.0452e-07
6.72409e-07
-1.23432e-07
1.12123e-07
6.56009e-07
-1.65776e-07
1.23432e-07
6.30529e-07
1.38171e-07
5.94064e-07
-2.02181e-07
1.52361e-07
9.16123e-08
6.25584e-07
-1.91956e-07
1.12123e-07
8.1351e-08
6.56009e-07
7.33731e-08
7.33731e-08
6.77374e-07
3.62071e-08
6.79997e-08
6.91249e-07
-1.41094e-16
6.53454e-08
6.98124e-07
-3.62071e-08
6.53454e-08
6.98124e-07
-7.33731e-08
6.79997e-08
6.91249e-07
-1.12123e-07
7.33731e-08
6.77374e-07
-1.52361e-07
8.1351e-08
6.56009e-07
9.16123e-08
6.25584e-07
-1.91956e-07
1.43364e-07
4.54879e-08
6.45828e-07
-1.83355e-07
1.0452e-07
4.02824e-08
6.72409e-07
6.79997e-08
3.62071e-08
6.91249e-07
3.34508e-08
3.34508e-08
7.036e-07
1.13987e-17
3.20853e-08
7.09753e-07
-3.34508e-08
3.20853e-08
7.09753e-07
-6.79997e-08
3.34508e-08
7.036e-07
-1.0452e-07
3.62071e-08
6.91249e-07
-1.43364e-07
4.02824e-08
6.72409e-07
4.54879e-08
6.45828e-07
-1.83355e-07
1.39018e-07
-4.46572e-16
6.55774e-07
-1.79375e-07
1.00785e-07
4.00387e-17
6.80488e-07
6.53454e-08
1.43856e-16
6.98124e-07
3.20853e-08
-3.34891e-17
7.09753e-07
-6.72418e-17
-1.48922e-16
7.15563e-07
-3.20853e-08
2.31869e-16
7.15563e-07
-6.53454e-08
1.62025e-16
7.09753e-07
-1.00785e-07
1.16814e-17
6.98124e-07
-1.39018e-07
-1.67184e-18
6.80488e-07
-1.68561e-16
6.55774e-07
-1.79375e-07
1.39018e-07
-4.54879e-08
6.55774e-07
-1.79375e-07
1.00785e-07
-4.02824e-08
6.80488e-07
6.53454e-08
-3.62071e-08
6.98124e-07
3.20853e-08
-3.34508e-08
7.09753e-07
3.92139e-16
-3.20853e-08
7.15563e-07
-3.20853e-08
-3.20853e-08
7.15563e-07
-6.53454e-08
-3.34508e-08
7.09753e-07
-1.00785e-07
-3.62071e-08
6.98124e-07
-1.39018e-07
-4.02824e-08
6.80488e-07
-4.54879e-08
6.55774e-07
-1.79375e-07
1.43364e-07
-9.16123e-08
6.45828e-07
-1.83355e-07
1.0452e-07
-8.1351e-08
6.72409e-07
6.79997e-08
-7.33731e-08
6.91249e-07
3.34508e-08
-6.79997e-08
7.036e-07
3.92545e-17
-6.53454e-08
7.09753e-07
-3.34508e-08
-6.53454e-08
7.09753e-07
-6.79997e-08
-6.79997e-08
7.036e-07
-1.0452e-07
-7.33731e-08
6.91249e-07
-1.43364e-07
-8.1351e-08
6.72409e-07
-9.16123e-08
6.45828e-07
-1.83355e-07
1.52361e-07
-1.38171e-07
6.25584e-07
-1.91956e-07
1.12123e-07
-1.23432e-07
6.56009e-07
7.33731e-08
-1.12123e-07
6.77374e-07
3.62071e-08
-1.0452e-07
6.91249e-07
3.21884e-17
-1.00785e-07
6.98124e-07
-3.62071e-08
-1.00785e-07
6.98124e-07
-7.33731e-08
-1.0452e-07
6.91249e-07
-1.12123e-07
-1.12123e-07
6.77374e-07
-1.52361e-07
-1.23432e-07
6.56009e-07
-1.38171e-07
6.25584e-07
-1.91956e-07
1.65776e-07
-1.86446e-07
5.94064e-07
-2.02181e-07
1.23432e-07
-1.65776e-07
6.30529e-07
8.1351e-08
-1.52361e-07
6.56009e-07
4.02824e-08
-1.43364e-07
6.72409e-07
1.13027e-16
-1.39018e-07
6.80488e-07
-4.02824e-08
-1.39018e-07
6.80488e-07
-8.1351e-08
-1.43364e-07
6.72409e-07
-1.23432e-07
-1.52361e-07
6.56009e-07
-1.65776e-07
-1.65776e-07
6.30529e-07
-1.86446e-07
5.94064e-07
-2.02181e-07
1.86446e-07
5.4976e-07
-2.26316e-07
-2.26316e-07
1.38171e-07
5.94064e-07
-2.02181e-07
9.16123e-08
6.25584e-07
-1.91956e-07
4.54879e-08
6.45828e-07
-1.83355e-07
-5.32648e-17
6.55774e-07
-1.79375e-07
-4.54879e-08
6.55774e-07
-1.79375e-07
-9.16123e-08
6.45828e-07
-1.83355e-07
-1.38171e-07
6.25584e-07
-1.91956e-07
-1.86446e-07
5.94064e-07
-2.02181e-07
5.4976e-07
-2.26316e-07
-2.26316e-07
1.24556e-07
1.24556e-07
5.85979e-07
-1.42665e-07
-1.42665e-07
9.79359e-08
1.22133e-07
6.41442e-07
-1.42891e-07
6.69151e-08
1.18777e-07
6.79618e-07
-1.4179e-07
3.37941e-08
1.15643e-07
7.03255e-07
-1.39949e-07
-5.85808e-16
1.14021e-07
7.14574e-07
-1.39027e-07
-3.37941e-08
1.14021e-07
7.14574e-07
-1.39027e-07
-6.69151e-08
1.15643e-07
7.03255e-07
-1.39949e-07
-9.79359e-08
1.18777e-07
6.79618e-07
-1.4179e-07
-1.24556e-07
1.22133e-07
6.41442e-07
-1.42891e-07
1.24556e-07
5.85979e-07
-1.42665e-07
-1.42665e-07
1.22133e-07
9.79359e-08
6.41442e-07
-1.42891e-07
9.42176e-08
9.42176e-08
6.8636e-07
6.35141e-08
9.021e-08
7.1528e-07
3.18402e-08
8.70113e-08
7.32715e-07
-1.90746e-16
8.53659e-08
7.40983e-07
-3.18402e-08
8.53659e-08
7.40983e-07
-6.35141e-08
8.70113e-08
7.32715e-07
-9.42176e-08
9.021e-08
7.1528e-07
-1.22133e-07
9.42176e-08
6.8636e-07
9.79359e-08
6.41442e-07
-1.42891e-07
1.18777e-07
6.69151e-08
6.79618e-07
-1.4179e-07
9.021e-08
6.35141e-08
7.1528e-07
6.0189e-08
6.0189e-08
7.37416e-07
3.0025e-08
5.77252e-08
7.50699e-07
9.29966e-17
5.64762e-08
7.57039e-07
-3.0025e-08
5.64762e-08
7.57039e-07
-6.0189e-08
5.77252e-08
7.50699e-07
-9.021e-08
6.0189e-08
7.37416e-07
-1.18777e-07
6.35141e-08
7.1528e-07
6.69151e-08
6.79618e-07
-1.4179e-07
1.15643e-07
3.37941e-08
7.03255e-07
-1.39949e-07
8.70113e-08
3.18402e-08
7.32715e-07
5.77252e-08
3.0025e-08
7.50699e-07
2.8722e-08
2.8722e-08
7.61607e-07
2.19892e-16
2.80667e-08
7.66884e-07
-2.8722e-08
2.80667e-08
7.66884e-07
-5.77252e-08
2.8722e-08
7.61607e-07
-8.70113e-08
3.0025e-08
7.50699e-07
-1.15643e-07
3.18402e-08
7.32715e-07
3.37941e-08
7.03255e-07
-1.39949e-07
1.14021e-07
9.51182e-17
7.14574e-07
-1.39027e-07
8.53659e-08
1.41364e-16
7.40983e-07
5.64762e-08
3.90861e-16
7.57039e-07
2.80667e-08
3.13225e-16
7.66884e-07
-2.91648e-17
-9.22787e-17
7.71697e-07
-2.80667e-08
2.47297e-16
7.71697e-07
-5.64762e-08
4.16261e-16
7.66884e-07
-8.53659e-08
-6.55589e-19
7.57039e-07
-1.14021e-07
-1.07049e-16
7.40983e-07
5.42873e-18
7.14574e-07
-1.39027e-07
1.14021e-07
-3.37941e-08
7.14574e-07
-1.39027e-07
8.53659e-08
-3.18402e-08
7.40983e-07
5.64762e-08
-3.0025e-08
7.57039e-07
2.80667e-08
-2.8722e-08
7.66884e-07
2.63275e-16
-2.80667e-08
7.71697e-07
-2.80667e-08
-2.80667e-08
7.71697e-07
-5.64762e-08
-2.8722e-08
7.66884e-07
-8.53659e-08
-3.0025e-08
7.57039e-07
-1.14021e-07
-3.18402e-08
7.40983e-07
-3.37941e-08
7.14574e-07
-1.39027e-07
1.15643e-07
-6.69151e-08
7.03255e-07
-1.39949e-07
8.70113e-08
-6.35141e-08
7.32715e-07
5.77252e-08
-6.0189e-08
7.50699e-07
2.8722e-08
-5.77252e-08
7.61607e-07
2.32748e-16
-5.64762e-08
7.66884e-07
-2.8722e-08
-5.64762e-08
7.66884e-07
-5.77252e-08
-5.77252e-08
7.61607e-07
-8.70113e-08
-6.0189e-08
7.50699e-07
-1.15643e-07
-6.35141e-08
7.32715e-07
-6.69151e-08
7.03255e-07
-1.39949e-07
1.18777e-07
-9.79359e-08
6.79618e-07
-1.4179e-07
9.021e-08
-9.42176e-08
7.1528e-07
6.0189e-08
-9.021e-08
7.37416e-07
3.0025e-08
-8.70113e-08
7.50699e-07
3.62367e-16
-8.53659e-08
7.57039e-07
-3.0025e-08
-8.53659e-08
7.57039e-07
-6.0189e-08
-8.70113e-08
7.50699e-07
-9.021e-08
-9.021e-08
7.37416e-07
-1.18777e-07
-9.42176e-08
7.1528e-07
-9.79359e-08
6.79618e-07
-1.4179e-07
1.22133e-07
-1.24556e-07
6.41442e-07
-1.42891e-07
9.42176e-08
-1.22133e-07
6.8636e-07
6.35141e-08
-1.18777e-07
7.1528e-07
3.18402e-08
-1.15643e-07
7.32715e-07
4.00886e-16
-1.14021e-07
7.40983e-07
-3.18402e-08
-1.14021e-07
7.40983e-07
-6.35141e-08
-1.15643e-07
7.32715e-07
-9.42176e-08
-1.18777e-07
7.1528e-07
-1.22133e-07
-1.22133e-07
6.8636e-07
-1.24556e-07
6.41442e-07
-1.42891e-07
1.24556e-07
5.85979e-07
-1.42665e-07
-1.42665e-07
9.79359e-08
6.41442e-07
-1.42891e-07
6.69151e-08
6.79618e-07
-1.4179e-07
3.37941e-08
7.03255e-07
-1.39949e-07
9.13007e-17
7.14574e-07
-1.39027e-07
-3.37941e-08
7.14574e-07
-1.39027e-07
-6.69151e-08
7.03255e-07
-1.39949e-07
-9.79359e-08
6.79618e-07
-1.4179e-07
-1.24556e-07
6.41442e-07
-1.42891e-07
5.85979e-07
-1.42665e-07
-1.42665e-07
8.89814e-08
8.89814e-08
5.95895e-07
-9.39392e-08
-9.39392e-08
7.44895e-08
9.37333e-08
6.62562e-07
-1.00362e-07
5.30463e-08
9.5685e-08
7.08851e-07
-1.03475e-07
2.74716e-08
9.6084e-08
7.37575e-07
-1.04829e-07
-5.3049e-16
9.61242e-08
7.51302e-07
-1.05381e-07
-2.74716e-08
9.61242e-08
7.51302e-07
-1.05381e-07
-5.30463e-08
9.6084e-08
7.37575e-07
-1.04829e-07
-7.44895e-08
9.5685e-08
7.08851e-07
-1.03475e-07
-8.89814e-08
9.37333e-08
6.62562e-07
-1.00362e-07
8.89814e-08
5.95895e-07
-9.39392e-08
-9.39392e-08
9.37333e-08
7.44895e-08
6.62562e-07
-1.00362e-07
7.73054e-08
7.73054e-08
7.19216e-07
5.45896e-08
7.81234e-08
7.55557e-07
2.81375e-08
7.7981e-08
7.7727e-07
4.84458e-16
7.77654e-08
7.87479e-07
-2.81374e-08
7.77654e-08
7.87479e-07
-5.45896e-08
7.7981e-08
7.7727e-07
-7.73054e-08
7.81234e-08
7.55557e-07
-9.37333e-08
7.73054e-08
7.19216e-07
7.44895e-08
6.62562e-07
-1.00362e-07
9.5685e-08
5.30463e-08
7.08851e-07
-1.03475e-07
7.81234e-08
5.45896e-08
7.55557e-07
5.48081e-08
5.48081e-08
7.84047e-07
2.81644e-08
5.45159e-08
8.00808e-07
8.48241e-16
5.42698e-08
8.08699e-07
-2.81644e-08
5.42698e-08
8.08699e-07
-5.48081e-08
5.45159e-08
8.00808e-07
-7.81234e-08
5.48081e-08
7.84047e-07
-9.5685e-08
5.45896e-08
7.55557e-07
5.30463e-08
7.08851e-07
-1.03475e-07
9.6084e-08
2.74716e-08
7.37575e-07
-1.04829e-07
7.7981e-08
2.81374e-08
7.7727e-07
5.45159e-08
2.81644e-08
8.00808e-07
2.79722e-08
2.79722e-08
8.14694e-07
6.31535e-16
2.78256e-08
8.21301e-07
-2.79722e-08
2.78256e-08
8.21301e-07
-5.45159e-08
2.79722e-08
8.14694e-07
-7.7981e-08
2.81644e-08
8.00808e-07
-9.6084e-08
2.81374e-08
7.7727e-07
2.74716e-08
7.37575e-07
-1.04829e-07
9.61242e-08
-2.40841e-16
7.51302e-07
-1.05381e-07
7.77654e-08
6.44473e-16
7.87479e-07
5.42698e-08
9.57669e-16
8.08699e-07
2.78256e-08
9.65317e-16
8.21301e-07
3.22525e-16
6.22e-16
8.27348e-07
-2.78256e-08
8.43145e-16
8.27348e-07
-5.42698e-08
1.06905e-15
8.21301e-07
-7.77654e-08
1.90101e-16
8.08699e-07
-9.61242e-08
-8.44511e-16
7.87479e-07
-7.0089e-16
7.51302e-07
-1.05381e-07
9.61242e-08
-2.74716e-08
7.51302e-07
-1.05381e-07
7.77654e-08
-2.81374e-08
7.87479e-07
5.42698e-08
-2.81644e-08
8.08699e-07
2.78256e-08
-2.79722e-08
8.21301e-07
7.01394e-16
-2.78256e-08
8.27348e-07
-2.78256e-08
-2.78256e-08
8.27348e-07
-5.42698e-08
-2.79722e-08
8.21301e-07
-7.77654e-08
-2.81644e-08
8.08699e-07
-9.61242e-08
-2.81374e-08
7.87479e-07
-2.74716e-08
7.51302e-07
-1.05381e-07
9.6084e-08
-5.30463e-08
7.37575e-07
-1.04829e-07
7.7981e-08
-5.45896e-08
7.7727e-07
5.45159e-08
-5.48081e-08
8.00808e-07
2.79722e-08
-5.45159e-08
8.14694e-07
3.88226e-16
-5.42698e-08
8.21301e-07
-2.79722e-08
-5.42698e-08
8.21301e-07
-5.45159e-08
-5.45159e-08
8.14694e-07
-7.7981e-08
-5.48081e-08
8.00808e-07
-9.6084e-08
-5.45896e-08
7.7727e-07
-5.30463e-08
7.37575e-07
-1.04829e-07
9.5685e-08
-7.44895e-08
7.08851e-07
-1.03475e-07
7.81234e-08
-7.73054e-08
7.55557e-07
5.48081e-08
-7.81234e-08
7.84047e-07
2.81644e-08
-7.7981e-08
8.00808e-07
-2.05578e-16
-7.77654e-08
8.08699e-07
-2.81644e-08
-7.77654e-08
8.08699e-07
-5.48081e-08
-7.7981e-08
8.00808e-07
-7.81234e-08
-7.81234e-08
7.84047e-07
-9.5685e-08
-7.73054e-08
7.55557e-07
-7.44895e-08
7.08851e-07
-1.03475e-07
9.37333e-08
-8.89814e-08
6.62562e-07
-1.00362e-07
7.73054e-08
-9.37333e-08
7.19216e-07
5.45896e-08
-9.5685e-08
7.55557e-07
2.81374e-08
-9.6084e-08
7.7727e-07
-7.33469e-16
-9.61242e-08
7.87479e-07
-2.81374e-08
-9.61242e-08
7.87479e-07
-5.45896e-08
-9.6084e-08
7.7727e-07
-7.73054e-08
-9.5685e-08
7.55557e-07
-9.37333e-08
-9.37333e-08
7.19216e-07
-8.89814e-08
6.62562e-07
-1.00362e-07
8.89814e-08
5.95895e-07
-9.39392e-08
-9.39392e-08
7.44895e-08
6.62562e-07
-1.00362e-07
5.30463e-08
7.08851e-07
-1.03475e-07
2.74716e-08
7.37575e-07
-1.04829e-07
-5.44879e-16
7.51302e-07
-1.05381e-07
-2.74716e-08
7.51302e-07
-1.05381e-07
-5.30463e-08
7.37575e-07
-1.04829e-07
-7.44895e-08
7.08851e-07
-1.03475e-07
-8.89814e-08
6.62562e-07
-1.00362e-07
5.95895e-07
-9.39392e-08
-9.39392e-08
3.95766e-08
3.95766e-08
5.95197e-07
-3.92275e-08
-3.92275e-08
3.51449e-08
4.53858e-08
6.66781e-07
-4.51726e-08
2.60425e-08
4.90889e-08
7.17482e-07
-4.86174e-08
1.38278e-08
5.11936e-08
7.49393e-07
-5.0797e-08
-2.98755e-16
5.2157e-08
7.64764e-07
-5.1791e-08
-1.38278e-08
5.2157e-08
7.64764e-07
-5.1791e-08
-2.60425e-08
5.11936e-08
7.49393e-07
-5.0797e-08
-3.51449e-08
4.90889e-08
7.17482e-07
-4.86174e-08
-3.95766e-08
4.53858e-08
6.66781e-07
-4.51725e-08
3.95766e-08
5.95197e-07
-3.92275e-08
-3.92275e-08
4.53858e-08
3.51449e-08
6.66781e-07
-4.51726e-08
3.98236e-08
3.98236e-08
7.3034e-07
2.93814e-08
4.28911e-08
7.72197e-07
1.55485e-08
4.46107e-08
7.97685e-07
1.10619e-15
4.5383e-08
8.09802e-07
-1.55485e-08
4.5383e-08
8.09802e-07
-2.93814e-08
4.46107e-08
7.97685e-07
-3.98236e-08
4.28911e-08
7.72197e-07
-4.53858e-08
3.98236e-08
7.3034e-07
3.51449e-08
6.66781e-07
-4.51725e-08
4.90889e-08
2.60425e-08
7.17482e-07
-4.86174e-08
4.28911e-08
2.93814e-08
7.72197e-07
3.15339e-08
3.15339e-08
8.06761e-07
1.66552e-08
3.27312e-08
8.27566e-07
1.13033e-15
3.32602e-08
8.37477e-07
-1.66552e-08
3.32602e-08
8.37477e-07
-3.15339e-08
3.27312e-08
8.27566e-07
-4.28911e-08
3.15339e-08
8.06761e-07
-4.90889e-08
2.93814e-08
7.72197e-07
2.60425e-08
7.17482e-07
-4.86174e-08
5.11936e-08
1.38278e-08
7.49393e-07
-5.0797e-08
4.46107e-08
1.55485e-08
7.97685e-07
3.27312e-08
1.66552e-08
8.27566e-07
1.72695e-08
1.72695e-08
8.45618e-07
7.33113e-16
1.75385e-08
8.54292e-07
-1.72695e-08
1.75385e-08
8.54292e-07
-3.27312e-08
1.72695e-08
8.45618e-07
-4.46107e-08
1.66552e-08
8.27566e-07
-5.11936e-08
1.55485e-08
7.97685e-07
1.38278e-08
7.49393e-07
-5.0797e-08
5.2157e-08
2.37854e-16
7.64764e-07
-5.1791e-08
4.5383e-08
1.51098e-15
8.09802e-07
3.32602e-08
1.17236e-15
8.37477e-07
1.75385e-08
9.18353e-16
8.54292e-07
7.26253e-16
9.21313e-16
8.62425e-07
-1.75385e-08
1.29945e-15
8.62425e-07
-3.32602e-08
1.47995e-15
8.54292e-07
-4.5383e-08
5.51784e-16
8.37477e-07
-5.2157e-08
-8.99406e-16
8.09802e-07
-1.35612e-15
7.64764e-07
-5.1791e-08
5.2157e-08
-1.38278e-08
7.64764e-07
-5.1791e-08
4.5383e-08
-1.55485e-08
8.09802e-07
3.32602e-08
-1.66552e-08
8.37477e-07
1.75385e-08
-1.72695e-08
8.54292e-07
1.2092e-15
-1.75385e-08
8.62425e-07
-1.75385e-08
-1.75385e-08
8.62425e-07
-3.32602e-08
-1.72695e-08
8.54292e-07
-4.5383e-08
-1.66552e-08
8.37477e-07
-5.2157e-08
-1.55485e-08
8.09802e-07
-1.38278e-08
7.64764e-07
-5.1791e-08
5.11936e-08
-2.60425e-08
7.49393e-07
-5.0797e-08
4.46107e-08
-2.93814e-08
7.97685e-07
3.27312e-08
-3.15339e-08
8.27566e-07
1.72695e-08
-3.27312e-08
8.45618e-07
1.11596e-15
-3.32602e-08
8.54292e-07
-1.72695e-08
-3.32602e-08
8.54292e-07
-3.27312e-08
-3.27312e-08
8.45618e-07
-4.46107e-08
-3.15339e-08
8.27566e-07
-5.11936e-08
-2.93814e-08
7.97685e-07
-2.60425e-08
7.49393e-07
-5.0797e-08
4.90889e-08
-3.51449e-08
7.17482e-07
-4.86174e-08
4.28911e-08
-3.98236e-08
7.72197e-07
3.15339e-08
-4.28911e-08
8.06761e-07
1.66552e-08
-4.46107e-08
8.27566e-07
4.12612e-16
-4.5383e-08
8.37477e-07
-1.66552e-08
-4.5383e-08
8.37477e-07
-3.15339e-08
-4.46107e-08
8.27566e-07
-4.28911e-08
-4.28911e-08
8.06761e-07
-4.90889e-08
-3.98236e-08
7.72197e-07
-3.51449e-08
7.17482e-07
-4.86174e-08
4.53858e-08
-3.95766e-08
6.66781e-07
-4.51725e-08
3.98236e-08
-4.53858e-08
7.3034e-07
2.93814e-08
-4.90889e-08
7.72197e-07
1.55485e-08
-5.11936e-08
7.97685e-07
-8.91423e-16
-5.2157e-08
8.09802e-07
-1.55485e-08
-5.2157e-08
8.09802e-07
-2.93814e-08
-5.11936e-08
7.97685e-07
-3.98236e-08
-4.90889e-08
7.72197e-07
-4.53858e-08
-4.53858e-08
7.3034e-07
-3.95766e-08
6.66781e-07
-4.51726e-08
3.95766e-08
5.95197e-07
-3.92275e-08
-3.92275e-08
3.51449e-08
6.66781e-07
-4.51725e-08
2.60425e-08
7.17482e-07
-4.86174e-08
1.38278e-08
7.49393e-07
-5.0797e-08
-1.00145e-15
7.64764e-07
-5.1791e-08
-1.38278e-08
7.64764e-07
-5.1791e-08
-2.60425e-08
7.49393e-07
-5.0797e-08
-3.51449e-08
7.17482e-07
-4.86174e-08
-3.95766e-08
6.66781e-07
-4.51726e-08
5.95197e-07
-3.92275e-08
-3.92275e-08
1.75901e-08
1.75901e-08
5.93062e-07
-1.65228e-08
-1.65228e-08
1.61811e-08
2.10144e-08
6.6674e-07
-1.95644e-08
1.23134e-08
2.345e-08
7.19527e-07
-2.16277e-08
6.64459e-09
2.49872e-08
7.53074e-07
-2.29992e-08
1.43295e-16
2.57189e-08
7.6933e-07
-2.36405e-08
-6.64459e-09
2.57189e-08
7.6933e-07
-2.36405e-08
-1.23134e-08
2.49872e-08
7.53074e-07
-2.29992e-08
-1.61811e-08
2.345e-08
7.19527e-07
-2.16277e-08
-1.75901e-08
2.10144e-08
6.6674e-07
-1.95644e-08
1.75901e-08
5.93062e-07
-1.65228e-08
-1.65228e-08
2.10144e-08
1.61811e-08
6.6674e-07
-1.95644e-08
1.93042e-08
1.93042e-08
7.33761e-07
1.46854e-08
2.15547e-08
7.78712e-07
7.913e-09
2.29434e-08
8.06502e-07
1.12974e-15
2.35995e-08
8.19834e-07
-7.913e-09
2.35995e-08
8.19834e-07
-1.46854e-08
2.29434e-08
8.06502e-07
-1.93042e-08
2.15547e-08
7.78712e-07
-2.10144e-08
1.93042e-08
7.33761e-07
1.61811e-08
6.6674e-07
-1.95644e-08
2.345e-08
1.23134e-08
7.19527e-07
-2.16277e-08
2.15547e-08
1.46854e-08
7.78712e-07
1.63824e-08
1.63824e-08
8.17105e-07
8.816e-09
1.74131e-08
8.40663e-07
1.06936e-15
1.78934e-08
8.51999e-07
-8.816e-09
1.78934e-08
8.51999e-07
-1.63824e-08
1.74131e-08
8.40663e-07
-2.15547e-08
1.63824e-08
8.17106e-07
-2.345e-08
1.46854e-08
7.78712e-07
1.23134e-08
7.19527e-07
-2.16277e-08
2.49872e-08
6.64459e-09
7.53074e-07
-2.29992e-08
2.29434e-08
7.913e-09
8.06502e-07
1.74131e-08
8.816e-09
8.40663e-07
9.36097e-09
9.36097e-09
8.61722e-07
6.91342e-16
9.61274e-09
8.71934e-07
-9.36097e-09
9.61274e-09
8.71934e-07
-1.74131e-08
9.36097e-09
8.61722e-07
-2.29434e-08
8.816e-09
8.40663e-07
-2.49872e-08
7.913e-09
8.06502e-07
6.64459e-09
7.53074e-07
-2.29992e-08
2.57189e-08
3.69732e-16
7.6933e-07
-2.36405e-08
2.35995e-08
1.51294e-15
8.19834e-07
1.78934e-08
1.44187e-15
8.51999e-07
9.61274e-09
1.11763e-15
8.71934e-07
6.87587e-16
1.03762e-15
8.8165e-07
-9.61274e-09
1.2597e-15
8.8165e-07
-1.78933e-08
1.11753e-15
8.71934e-07
-2.35995e-08
4.50667e-16
8.51999e-07
-2.57189e-08
-3.17449e-16
8.19834e-07
-6.91995e-16
7.6933e-07
-2.36405e-08
2.57189e-08
-6.64458e-09
7.6933e-07
-2.36405e-08
2.35995e-08
-7.913e-09
8.19834e-07
1.78934e-08
-8.816e-09
8.51999e-07
9.61274e-09
-9.36097e-09
8.71934e-07
9.35145e-16
-9.61274e-09
8.8165e-07
-9.61274e-09
-9.61274e-09
8.8165e-07
-1.78933e-08
-9.36097e-09
8.71934e-07
-2.35995e-08
-8.816e-09
8.51999e-07
-2.57189e-08
-7.913e-09
8.19834e-07
-6.64459e-09
7.6933e-07
-2.36405e-08
2.49872e-08
-1.23134e-08
7.53074e-07
-2.29992e-08
2.29434e-08
-1.46854e-08
8.06502e-07
1.74131e-08
-1.63824e-08
8.40663e-07
9.36097e-09
-1.74131e-08
8.61722e-07
7.30893e-16
-1.78933e-08
8.71934e-07
-9.36097e-09
-1.78933e-08
8.71934e-07
-1.74131e-08
-1.74131e-08
8.61722e-07
-2.29434e-08
-1.63824e-08
8.40663e-07
-2.49872e-08
-1.46854e-08
8.06502e-07
-1.23134e-08
7.53074e-07
-2.29992e-08
2.345e-08
-1.61811e-08
7.19527e-07
-2.16277e-08
2.15547e-08
-1.93042e-08
7.78712e-07
1.63824e-08
-2.15547e-08
8.17106e-07
8.816e-09
-2.29434e-08
8.40663e-07
8.29215e-17
-2.35995e-08
8.51999e-07
-8.816e-09
-2.35995e-08
8.51999e-07
-1.63824e-08
-2.29434e-08
8.40663e-07
-2.15547e-08
-2.15547e-08
8.17106e-07
-2.345e-08
-1.93042e-08
7.78712e-07
-1.61811e-08
7.19527e-07
-2.16277e-08
2.10144e-08
-1.75901e-08
6.6674e-07
-1.95644e-08
1.93042e-08
-2.10144e-08
7.33761e-07
1.46854e-08
-2.345e-08
7.78712e-07
7.913e-09
-2.49872e-08
8.06502e-07
-5.63159e-16
-2.57189e-08
8.19834e-07
-7.913e-09
-2.57189e-08
8.19834e-07
-1.46854e-08
-2.49872e-08
8.06502e-07
-1.93042e-08
-2.345e-08
7.78712e-07
-2.10144e-08
-2.10144e-08
7.33761e-07
-1.75901e-08
6.6674e-07
-1.95644e-08
1.75901e-08
5.93062e-07
-1.65228e-08
-1.65228e-08
1.61811e-08
6.6674e-07
-1.95644e-08
1.23134e-08
7.19527e-07
-2.16277e-08
6.64459e-09
7.53074e-07
-2.29992e-08
-4.36966e-16
7.6933e-07
-2.36405e-08
-6.64459e-09
7.6933e-07
-2.36405e-08
-1.23134e-08
7.53074e-07
-2.29992e-08
-1.61811e-08
7.19527e-07
-2.16277e-08
-1.75901e-08
6.6674e-07
-1.95644e-08
5.93062e-07
-1.65228e-08
-1.65228e-08
6.33329e-09
6.33329e-09
5.913e-07
-5.45219e-09
-5.45219e-09
6.20927e-09
8.19626e-09
6.65596e-07
-6.9283e-09
4.93085e-09
9.63225e-09
7.19195e-07
-8.0215e-09
2.72812e-09
1.0601e-08
7.53471e-07
-8.79487e-09
1.18482e-16
1.10766e-08
7.70148e-07
-9.16682e-09
-2.72812e-09
1.10766e-08
7.70148e-07
-9.16682e-09
-4.93085e-09
1.0601e-08
7.53471e-07
-8.79487e-09
-6.20927e-09
9.63225e-09
7.19195e-07
-8.0215e-09
-6.33329e-09
8.19625e-09
6.65596e-07
-6.9283e-09
6.33329e-09
5.913e-07
-5.45219e-09
-5.45219e-09
8.19626e-09
6.20927e-09
6.65596e-07
-6.9283e-09
8.04749e-09
8.04749e-09
7.34058e-07
6.38852e-09
9.47151e-09
7.80531e-07
3.52628e-09
1.04053e-08
8.0956e-07
5.15016e-16
1.08609e-08
8.23576e-07
-3.52628e-09
1.08609e-08
8.23576e-07
-6.38851e-09
1.04053e-08
8.0956e-07
-8.04749e-09
9.47151e-09
7.80531e-07
-8.19625e-09
8.04749e-09
7.34058e-07
6.20927e-09
6.65596e-07
-6.9283e-09
9.63225e-09
4.93085e-09
7.19195e-07
-8.0215e-09
9.47151e-09
6.38852e-09
7.80531e-07
7.50753e-09
7.50753e-09
8.21033e-07
4.13419e-09
8.22678e-09
8.46215e-07
3.85594e-16
8.57316e-09
8.58421e-07
-4.13419e-09
8.57316e-09
8.58421e-07
-7.50753e-09
8.22678e-09
8.46215e-07
-9.47151e-09
7.50753e-09
8.21033e-07
-9.63225e-09
6.38852e-09
7.80531e-07
4.93085e-09
7.19195e-07
-8.0215e-09
1.0601e-08
2.72812e-09
7.53471e-07
-8.79487e-09
1.04053e-08
3.52629e-09
8.0956e-07
8.22678e-09
4.13419e-09
8.46215e-07
4.52132e-09
4.52132e-09
8.69133e-07
3.73116e-16
4.70627e-09
8.80322e-07
-4.52132e-09
4.70627e-09
8.80322e-07
-8.22678e-09
4.52132e-09
8.69133e-07
-1.04053e-08
4.13419e-09
8.46215e-07
-1.0601e-08
3.52628e-09
8.0956e-07
2.72812e-09
7.53471e-07
-8.79487e-09
1.10766e-08
2.68516e-16
7.70148e-07
-9.16682e-09
1.08609e-08
9.14185e-16
8.23576e-07
8.57316e-09
7.37879e-16
8.58421e-07
4.70627e-09
5.44553e-16
8.80322e-07
6.99424e-16
6.8014e-16
8.91063e-07
-4.70627e-09
1.14804e-15
8.91063e-07
-8.57316e-09
1.11849e-15
8.80322e-07
-1.08609e-08
7.15499e-16
8.58421e-07
-1.10766e-08
1.08789e-16
8.23576e-07
-4.61931e-16
7.70148e-07
-9.16682e-09
1.10766e-08
-2.72812e-09
7.70148e-07
-9.16682e-09
1.08609e-08
-3.52628e-09
8.23576e-07
8.57316e-09
-4.13419e-09
8.58421e-07
4.70627e-09
-4.52132e-09
8.80322e-07
1.08852e-15
-4.70627e-09
8.91063e-07
-4.70627e-09
-4.70627e-09
8.91063e-07
-8.57316e-09
-4.52132e-09
8.80322e-07
-1.08609e-08
-4.13419e-09
8.58421e-07
-1.10766e-08
-3.52628e-09
8.23576e-07
-2.72812e-09
7.70148e-07
-9.16682e-09
1.0601e-08
-4.93085e-09
7.53471e-07
-8.79487e-09
1.04053e-08
-6.38851e-09
8.0956e-07
8.22678e-09
-7.50753e-09
8.46215e-07
4.52132e-09
-8.22678e-09
8.69133e-07
1.10691e-15
-8.57316e-09
8.80322e-07
-4.52132e-09
-8.57316e-09
8.80322e-07
-8.22678e-09
-8.22678e-09
8.69133e-07
-1.04053e-08
-7.50753e-09
8.46215e-07
-1.0601e-08
-6.38852e-09
8.0956e-07
-4.93085e-09
7.53471e-07
-8.79487e-09
9.63225e-09
-6.20927e-09
7.19195e-07
-8.0215e-09
9.47151e-09
-8.04749e-09
7.80531e-07
7.50753e-09
-9.47151e-09
8.21033e-07
4.13419e-09
-1.04053e-08
8.46215e-07
6.73733e-16
-1.08609e-08
8.58421e-07
-4.13419e-09
-1.08609e-08
8.58421e-07
-7.50753e-09
-1.04053e-08
8.46215e-07
-9.47151e-09
-9.47151e-09
8.21033e-07
-9.63225e-09
-8.04749e-09
7.80531e-07
-6.20927e-09
7.19195e-07
-8.0215e-09
8.19625e-09
-6.33329e-09
6.65596e-07
-6.9283e-09
8.04749e-09
-8.19625e-09
7.34058e-07
6.38852e-09
-9.63225e-09
7.80531e-07
3.52628e-09
-1.0601e-08
8.0956e-07
3.16915e-17
-1.10766e-08
8.23576e-07
-3.52628e-09
-1.10766e-08
8.23576e-07
-6.38851e-09
-1.0601e-08
8.0956e-07
-8.04749e-09
-9.63225e-09
7.80531e-07
-8.19625e-09
-8.19625e-09
7.34058e-07
-6.33329e-09
6.65596e-07
-6.9283e-09
6.33329e-09
5.913e-07
-5.45219e-09
-5.45219e-09
6.20927e-09
6.65596e-07
-6.9283e-09
4.93085e-09
7.19195e-07
-8.0215e-09
2.72812e-09
7.53471e-07
-8.79487e-09
-2.36618e-16
7.70148e-07
-9.16682e-09
-2.72812e-09
7.70148e-07
-9.16682e-09
-4.93085e-09
7.53471e-07
-8.79487e-09
-6.20927e-09
7.19195e-07
-8.0215e-09
-6.33329e-09
6.65596e-07
-6.9283e-09
5.913e-07
-5.45219e-09
-5.45219e-09
1.84219e-09
1.84219e-09
5.90435e-07
-1.40983e-09
-1.40983e-09
1.95846e-09
2.64924e-09
6.64812e-07
-1.98181e-09
1.63507e-09
3.32036e-09
7.18635e-07
-2.43664e-09
9.30981e-10
3.80224e-09
7.53156e-07
-2.78352e-09
1.78824e-16
4.04498e-09
7.69988e-07
-2.95376e-09
-9.3098e-10
4.04498e-09
7.69988e-07
-2.95376e-09
-1.63507e-09
3.80224e-09
7.53156e-07
-2.78352e-09
-1.95846e-09
3.32036e-09
7.18635e-07
-2.43664e-09
-1.84219e-09
2.64924e-09
6.64812e-07
-1.98181e-09
1.84219e-09
5.90435e-07
-1.40983e-09
-1.40983e-09
2.64924e-09
1.95846e-09
6.64812e-07
-1.98181e-09
2.81496e-09
2.81496e-09
7.33727e-07
2.34507e-09
3.52811e-09
7.80793e-07
1.32929e-09
4.02303e-09
8.10355e-07
4.65474e-16
4.27122e-09
8.24679e-07
-1.32929e-09
4.27122e-09
8.24679e-07
-2.34507e-09
4.02303e-09
8.10355e-07
-2.81496e-09
3.52811e-09
7.80793e-07
-2.64924e-09
2.81496e-09
7.33727e-07
1.95846e-09
6.64812e-07
-1.98181e-09
3.32036e-09
1.63507e-09
7.18635e-07
-2.43664e-09
3.52811e-09
2.34507e-09
7.80793e-07
2.92857e-09
2.92857e-09
8.22233e-07
1.65313e-09
3.32436e-09
8.48189e-07
5.88725e-16
3.52061e-09
8.60825e-07
-1.65313e-09
3.52061e-09
8.60825e-07
-2.92857e-09
3.32436e-09
8.48189e-07
-3.52811e-09
2.92857e-09
8.22233e-07
-3.32036e-09
2.34507e-09
7.80793e-07
1.63507e-09
7.18635e-07
-2.43664e-09
3.80224e-09
9.30981e-10
7.53156e-07
-2.78352e-09
4.02303e-09
1.32929e-09
8.10355e-07
3.32435e-09
1.65313e-09
8.48189e-07
1.87038e-09
1.87038e-09
8.72041e-07
6.05793e-16
1.97736e-09
8.83736e-07
-1.87037e-09
1.97736e-09
8.83736e-07
-3.32435e-09
1.87038e-09
8.72041e-07
-4.02303e-09
1.65313e-09
8.48189e-07
-3.80224e-09
1.32929e-09
8.10355e-07
9.3098e-10
7.53156e-07
-2.78352e-09
4.04498e-09
9.48277e-17
7.69988e-07
-2.95376e-09
4.27122e-09
5.54317e-16
8.24679e-07
3.52061e-09
8.7764e-16
8.60825e-07
1.97736e-09
8.78006e-16
8.83736e-07
7.26163e-16
7.97635e-16
8.95017e-07
-1.97736e-09
7.66209e-16
8.95017e-07
-3.52061e-09
5.88593e-16
8.83736e-07
-4.27122e-09
4.15349e-16
8.60825e-07
-4.04498e-09
2.20914e-16
8.24679e-07
-9.76519e-18
7.69988e-07
-2.95376e-09
4.04498e-09
-9.3098e-10
7.69988e-07
-2.95376e-09
4.27122e-09
-1.32929e-09
8.24679e-07
3.52061e-09
-1.65313e-09
8.60825e-07
1.97736e-09
-1.87037e-09
8.83736e-07
5.81579e-16
-1.97736e-09
8.95017e-07
-1.97736e-09
-1.97736e-09
8.95017e-07
-3.52061e-09
-1.87037e-09
8.83736e-07
-4.27122e-09
-1.65313e-09
8.60825e-07
-4.04498e-09
-1.32929e-09
8.24679e-07
-9.3098e-10
7.69988e-07
-2.95376e-09
3.80224e-09
-1.63507e-09
7.53156e-07
-2.78352e-09
4.02303e-09
-2.34507e-09
8.10355e-07
3.32435e-09
-2.92857e-09
8.48189e-07
1.87038e-09
-3.32435e-09
8.72041e-07
5.03101e-16
-3.52061e-09
8.83736e-07
-1.87037e-09
-3.52061e-09
8.83736e-07
-3.32435e-09
-3.32435e-09
8.72041e-07
-4.02303e-09
-2.92857e-09
8.48189e-07
-3.80224e-09
-2.34507e-09
8.10355e-07
-1.63507e-09
7.53156e-07
-2.78352e-09
3.32036e-09
-1.95846e-09
7.18635e-07
-2.43664e-09
3.52811e-09
-2.81496e-09
7.80793e-07
2.92857e-09
-3.52811e-09
8.22233e-07
1.65313e-09
-4.02303e-09
8.48189e-07
3.29583e-16
-4.27122e-09
8.60825e-07
-1.65313e-09
-4.27122e-09
8.60825e-07
-2.92857e-09
-4.02303e-09
8.48189e-07
-3.52811e-09
-3.52811e-09
8.22233e-07
-3.32036e-09
-2.81496e-09
7.80793e-07
-1.95846e-09
7.18635e-07
-2.43664e-09
2.64924e-09
-1.84219e-09
6.64812e-07
-1.98181e-09
2.81496e-09
-2.64924e-09
7.33727e-07
2.34507e-09
-3.32036e-09
7.80793e-07
1.32929e-09
-3.80224e-09
8.10355e-07
-2.37411e-17
-4.04498e-09
8.24679e-07
-1.32929e-09
-4.04498e-09
8.24679e-07
-2.34507e-09
-3.80224e-09
8.10355e-07
-2.81496e-09
-3.32036e-09
7.80793e-07
-2.64924e-09
-2.64924e-09
7.33727e-07
-1.84219e-09
6.64812e-07
-1.98181e-09
1.84219e-09
5.90435e-07
-1.40983e-09
-1.40983e-09
1.95846e-09
6.64812e-07
-1.98181e-09
1.63507e-09
7.18635e-07
-2.43664e-09
9.3098e-10
7.53156e-07
-2.78352e-09
-2.81084e-16
7.69988e-07
-2.95376e-09
-9.3098e-10
7.69988e-07
-2.95376e-09
-1.63507e-09
7.53156e-07
-2.78352e-09
-1.95846e-09
7.18635e-07
-2.43664e-09
-1.84219e-09
6.64812e-07
-1.98181e-09
5.90435e-07
-1.40983e-09
-1.40983e-09
4.45108e-10
4.45108e-10
5.90085e-07
-2.69929e-10
-2.69929e-10
5.33137e-10
7.42621e-10
6.64442e-07
-4.60973e-10
4.75562e-10
1.00499e-09
7.18312e-07
-6.2437e-10
2.80374e-10
1.20275e-09
7.52903e-07
-7.54699e-10
2.05515e-17
1.30411e-09
7.69784e-07
-8.19545e-10
-2.80374e-10
1.30411e-09
7.69784e-07
-8.19545e-10
-4.75562e-10
1.20275e-09
7.52903e-07
-7.54699e-10
-5.33137e-10
1.00499e-09
7.18312e-07
-6.2437e-10
-4.45108e-10
7.42621e-10
6.64442e-07
-4.60973e-10
4.45108e-10
5.90085e-07
-2.69929e-10
-2.6993e-10
7.4262e-10
5.33136e-10
6.64442e-07
-4.60973e-10
8.69329e-10
8.69328e-10
7.33473e-07
7.63746e-10
1.16447e-09
7.8074e-07
4.45145e-10
1.3786e-09
8.10497e-07
9.01869e-17
1.48812e-09
8.24941e-07
-4.45145e-10
1.48812e-09
8.24941e-07
-7.63746e-10
1.3786e-09
8.10497e-07
-8.69329e-10
1.16447e-09
7.8074e-07
-7.42621e-10
8.69329e-10
7.33473e-07
5.33136e-10
6.64442e-07
-4.60973e-10
1.00499e-09
4.75561e-10
7.18312e-07
-6.24369e-10
1.16447e-09
7.63746e-10
7.8074e-07
1.01354e-09
1.01354e-09
8.22534e-07
5.86315e-10
1.19043e-09
8.48804e-07
1.98578e-16
1.28001e-09
8.61619e-07
-5.86315e-10
1.28001e-09
8.61619e-07
-1.01354e-09
1.19043e-09
8.48804e-07
-1.16447e-09
1.01354e-09
8.22534e-07
-1.00499e-09
7.63746e-10
7.8074e-07
4.75561e-10
7.18312e-07
-6.24369e-10
1.20275e-09
2.80373e-10
7.52903e-07
-7.54699e-10
1.3786e-09
4.45145e-10
8.10497e-07
1.19042e-09
5.86316e-10
8.48804e-07
6.85134e-10
6.85135e-10
8.73051e-07
3.01621e-16
7.34888e-10
8.84966e-07
-6.85134e-10
7.34888e-10
8.84966e-07
-1.19042e-09
6.85135e-10
8.73051e-07
-1.3786e-09
5.86316e-10
8.48804e-07
-1.20275e-09
4.45145e-10