/*--------------------------------*- C++ -*----------------------------------*\
| =========                 |                                                 |
| \\      /  F ield         | OpenFOAM: The Open Source CFD Toolbox           |
|  \\    /   O peration     | Version:  2412                                  |
|   \\  /    A nd           | Website:  www.openfoam.com                      |
|    \\/     M anipulation  |                                                 |
\*---------------------------------------------------------------------------*/
FoamFile
{
    version     2.0;
    format      ascii;
    arch        "LSB;label=32;scalar=64";
    class       volVectorField;
    location    "3.8";
    object      U;
}
// * * * * * * * * * * * * * * * * * * * * * * * * * * * * * * * * * * * * * //

dimensions      [0 1 -1 0 0 0 0];

internalField   nonuniform List<vector> 
15000
(
(0.00116979 0.00116979 0.0105466)
(0.000861875 0.0010919 0.0105252)
(0.000586069 0.00106653 0.010493)
(0.00034365 0.00104127 0.0104654)
(0.000112752 0.00102971 0.0104505)
(-0.000112752 0.00102971 0.0104505)
(-0.00034365 0.00104127 0.0104654)
(-0.000586069 0.00106653 0.010493)
(-0.000861875 0.0010919 0.0105252)
(-0.00116979 0.00116979 0.0105466)
(0.0010919 0.000861875 0.0105252)
(0.00081083 0.00081083 0.0104731)
(0.000554051 0.000775254 0.0104217)
(0.000322729 0.00075013 0.0103847)
(0.000105794 0.000737998 0.010366)
(-0.000105794 0.000737998 0.010366)
(-0.000322729 0.00075013 0.0103847)
(-0.000554051 0.000775254 0.0104217)
(-0.00081083 0.00081083 0.0104731)
(-0.0010919 0.000861875 0.0105252)
(0.00106653 0.000586069 0.010493)
(0.000775254 0.000554051 0.0104217)
(0.000525657 0.000525657 0.010362)
(0.000304354 0.000505175 0.0103217)
(9.9544e-05 0.000494912 0.0103019)
(-9.9544e-05 0.000494912 0.0103019)
(-0.000304353 0.000505175 0.0103217)
(-0.000525657 0.000525657 0.010362)
(-0.000775254 0.000554051 0.0104217)
(-0.00106653 0.000586069 0.010493)
(0.00104127 0.00034365 0.0104654)
(0.00075013 0.000322729 0.0103847)
(0.000505175 0.000304354 0.0103217)
(0.000291073 0.000291073 0.0102806)
(9.50015e-05 0.00028435 0.0102605)
(-9.50015e-05 0.00028435 0.0102605)
(-0.000291073 0.000291073 0.0102806)
(-0.000505175 0.000304353 0.0103217)
(-0.00075013 0.000322729 0.0103847)
(-0.00104127 0.00034365 0.0104654)
(0.00102971 0.000112752 0.0104505)
(0.000737998 0.000105794 0.010366)
(0.000494912 9.9544e-05 0.0103019)
(0.00028435 9.50015e-05 0.0102605)
(9.2694e-05 9.2694e-05 0.0102404)
(-9.2694e-05 9.2694e-05 0.0102404)
(-0.00028435 9.50015e-05 0.0102605)
(-0.000494912 9.9544e-05 0.0103019)
(-0.000737998 0.000105794 0.010366)
(-0.00102971 0.000112752 0.0104505)
(0.00102971 -0.000112752 0.0104505)
(0.000737998 -0.000105794 0.010366)
(0.000494912 -9.9544e-05 0.0103019)
(0.00028435 -9.50015e-05 0.0102605)
(9.2694e-05 -9.2694e-05 0.0102404)
(-9.2694e-05 -9.2694e-05 0.0102404)
(-0.00028435 -9.50015e-05 0.0102605)
(-0.000494912 -9.9544e-05 0.0103019)
(-0.000737998 -0.000105794 0.010366)
(-0.00102971 -0.000112752 0.0104505)
(0.00104127 -0.00034365 0.0104654)
(0.00075013 -0.000322729 0.0103847)
(0.000505175 -0.000304354 0.0103217)
(0.000291073 -0.000291073 0.0102806)
(9.50015e-05 -0.00028435 0.0102605)
(-9.50015e-05 -0.00028435 0.0102605)
(-0.000291073 -0.000291073 0.0102806)
(-0.000505175 -0.000304353 0.0103217)
(-0.00075013 -0.000322729 0.0103847)
(-0.00104127 -0.00034365 0.0104654)
(0.00106653 -0.000586069 0.010493)
(0.000775254 -0.000554051 0.0104217)
(0.000525657 -0.000525657 0.010362)
(0.000304354 -0.000505175 0.0103217)
(9.9544e-05 -0.000494912 0.0103019)
(-9.9544e-05 -0.000494912 0.0103019)
(-0.000304353 -0.000505175 0.0103217)
(-0.000525657 -0.000525657 0.010362)
(-0.000775254 -0.000554051 0.0104217)
(-0.00106653 -0.000586069 0.010493)
(0.0010919 -0.000861875 0.0105252)
(0.00081083 -0.00081083 0.0104731)
(0.000554051 -0.000775254 0.0104217)
(0.000322729 -0.00075013 0.0103847)
(0.000105794 -0.000737998 0.010366)
(-0.000105794 -0.000737998 0.010366)
(-0.000322729 -0.00075013 0.0103847)
(-0.000554051 -0.000775254 0.0104217)
(-0.00081083 -0.00081083 0.0104731)
(-0.0010919 -0.000861875 0.0105252)
(0.00116979 -0.00116979 0.0105466)
(0.000861875 -0.0010919 0.0105252)
(0.000586069 -0.00106653 0.010493)
(0.00034365 -0.00104127 0.0104654)
(0.000112752 -0.00102971 0.0104505)
(-0.000112752 -0.00102971 0.0104505)
(-0.00034365 -0.00104127 0.0104654)
(-0.000586069 -0.00106653 0.010493)
(-0.000861875 -0.0010919 0.0105252)
(-0.00116979 -0.00116979 0.0105466)
(0.000571498 0.000571498 0.0124752)
(0.000453359 0.000601895 0.0124016)
(0.00032326 0.000625239 0.0122928)
(0.000194517 0.000637878 0.012201)
(6.45614e-05 0.000645018 0.0121516)
(-6.45614e-05 0.000645018 0.0121516)
(-0.000194517 0.000637878 0.012201)
(-0.00032326 0.000625239 0.0122928)
(-0.000453359 0.000601895 0.0124016)
(-0.000571498 0.000571498 0.0124752)
(0.000601895 0.000453359 0.0124016)
(0.000474205 0.000474205 0.0122233)
(0.000338722 0.000488396 0.0120495)
(0.000203326 0.000496388 0.0119252)
(6.76593e-05 0.000500722 0.0118621)
(-6.76593e-05 0.000500722 0.0118621)
(-0.000203326 0.000496388 0.0119252)
(-0.000338722 0.000488396 0.0120495)
(-0.000474205 0.000474205 0.0122233)
(-0.000601895 0.000453359 0.0124016)
(0.000625239 0.00032326 0.0122928)
(0.000488396 0.000338722 0.0120495)
(0.000348729 0.000348729 0.0118459)
(0.0002092 0.00035445 0.0117091)
(6.96882e-05 0.000357366 0.0116416)
(-6.96882e-05 0.000357366 0.0116416)
(-0.0002092 0.00035445 0.0117091)
(-0.000348729 0.000348729 0.0118459)
(-0.000488396 0.000338722 0.0120495)
(-0.000625239 0.00032326 0.0122928)
(0.000637878 0.000194517 0.012201)
(0.000496388 0.000203326 0.0119252)
(0.00035445 0.0002092 0.0117091)
(0.000212669 0.000212669 0.0115683)
(7.08883e-05 0.00021441 0.0114996)
(-7.08883e-05 0.00021441 0.0114996)
(-0.000212669 0.000212669 0.0115683)
(-0.00035445 0.0002092 0.0117091)
(-0.000496388 0.000203326 0.0119252)
(-0.000637878 0.000194517 0.012201)
(0.000645018 6.45614e-05 0.0121516)
(0.000500722 6.76593e-05 0.0118621)
(0.000357366 6.96882e-05 0.0116416)
(0.00021441 7.08883e-05 0.0114996)
(7.14839e-05 7.14839e-05 0.0114307)
(-7.14839e-05 7.14839e-05 0.0114307)
(-0.00021441 7.08883e-05 0.0114996)
(-0.000357366 6.96882e-05 0.0116416)
(-0.000500722 6.76593e-05 0.0118621)
(-0.000645018 6.45614e-05 0.0121516)
(0.000645018 -6.45614e-05 0.0121516)
(0.000500722 -6.76593e-05 0.0118621)
(0.000357366 -6.96882e-05 0.0116416)
(0.00021441 -7.08883e-05 0.0114996)
(7.14839e-05 -7.14839e-05 0.0114307)
(-7.14839e-05 -7.14839e-05 0.0114307)
(-0.00021441 -7.08883e-05 0.0114996)
(-0.000357366 -6.96882e-05 0.0116416)
(-0.000500722 -6.76593e-05 0.0118621)
(-0.000645018 -6.45614e-05 0.0121516)
(0.000637878 -0.000194517 0.012201)
(0.000496388 -0.000203326 0.0119252)
(0.00035445 -0.0002092 0.0117091)
(0.000212669 -0.000212669 0.0115683)
(7.08883e-05 -0.00021441 0.0114996)
(-7.08883e-05 -0.00021441 0.0114996)
(-0.000212669 -0.000212669 0.0115683)
(-0.00035445 -0.0002092 0.0117091)
(-0.000496388 -0.000203326 0.0119252)
(-0.000637878 -0.000194517 0.012201)
(0.000625239 -0.00032326 0.0122928)
(0.000488396 -0.000338722 0.0120495)
(0.000348729 -0.000348729 0.0118459)
(0.0002092 -0.000354449 0.0117091)
(6.96882e-05 -0.000357366 0.0116416)
(-6.96882e-05 -0.000357366 0.0116416)
(-0.0002092 -0.00035445 0.0117091)
(-0.000348729 -0.000348729 0.0118459)
(-0.000488396 -0.000338722 0.0120495)
(-0.000625239 -0.00032326 0.0122928)
(0.000601895 -0.000453359 0.0124016)
(0.000474205 -0.000474205 0.0122233)
(0.000338723 -0.000488396 0.0120495)
(0.000203326 -0.000496388 0.0119252)
(6.76593e-05 -0.000500722 0.0118621)
(-6.76593e-05 -0.000500722 0.0118621)
(-0.000203326 -0.000496388 0.0119252)
(-0.000338722 -0.000488396 0.0120495)
(-0.000474205 -0.000474205 0.0122233)
(-0.000601895 -0.000453359 0.0124016)
(0.000571498 -0.000571497 0.0124752)
(0.000453359 -0.000601895 0.0124016)
(0.00032326 -0.000625239 0.0122928)
(0.000194517 -0.000637878 0.012201)
(6.45614e-05 -0.000645018 0.0121516)
(-6.45614e-05 -0.000645018 0.0121516)
(-0.000194517 -0.000637878 0.012201)
(-0.00032326 -0.000625239 0.0122928)
(-0.000453359 -0.000601895 0.0124016)
(-0.000571498 -0.000571498 0.0124752)
(0.000334964 0.000334964 0.0123269)
(0.000282314 0.000374206 0.0124189)
(0.000213242 0.000404107 0.0124167)
(0.000132738 0.000423191 0.0123896)
(4.48247e-05 0.000433126 0.0123709)
(-4.48247e-05 0.000433126 0.0123709)
(-0.000132738 0.000423191 0.0123896)
(-0.000213242 0.000404107 0.0124167)
(-0.000282314 0.000374206 0.0124189)
(-0.000334964 0.000334964 0.0123269)
(0.000374206 0.000282314 0.0124189)
(0.000317905 0.000317905 0.0123965)
(0.000240334 0.000342992 0.0123238)
(0.000149427 0.000358516 0.0122614)
(5.05648e-05 0.000366302 0.012228)
(-5.05648e-05 0.000366302 0.012228)
(-0.000149427 0.000358516 0.0122614)
(-0.000240334 0.000342992 0.0123238)
(-0.000317905 0.000317905 0.0123965)
(-0.000374206 0.000282314 0.0124189)
(0.000404107 0.000213242 0.0124167)
(0.000342992 0.000240334 0.0123238)
(0.000259103 0.000259103 0.0122177)
(0.000160839 0.000270455 0.0121408)
(5.44367e-05 0.00027596 0.0121019)
(-5.44366e-05 0.00027596 0.0121019)
(-0.000160839 0.000270455 0.0121408)
(-0.000259103 0.000259103 0.0122177)
(-0.000342992 0.000240334 0.0123238)
(-0.000404107 0.000213242 0.0124167)
(0.000423191 0.000132738 0.0123896)
(0.000358516 0.000149427 0.0122614)
(0.000270455 0.000160839 0.0121408)
(0.000167656 0.000167656 0.0120583)
(5.67258e-05 0.000170897 0.0120173)
(-5.67258e-05 0.000170897 0.0120173)
(-0.000167656 0.000167656 0.0120583)
(-0.000270455 0.000160839 0.0121408)
(-0.000358516 0.000149427 0.0122614)
(-0.000423191 0.000132738 0.0123896)
(0.000433126 4.48247e-05 0.0123709)
(0.000366302 5.05648e-05 0.012228)
(0.00027596 5.44367e-05 0.0121019)
(0.000170897 5.67258e-05 0.0120173)
(5.78012e-05 5.78012e-05 0.0119756)
(-5.78012e-05 5.78012e-05 0.0119756)
(-0.000170897 5.67258e-05 0.0120173)
(-0.00027596 5.44366e-05 0.0121019)
(-0.000366302 5.05648e-05 0.012228)
(-0.000433126 4.48247e-05 0.0123709)
(0.000433126 -4.48247e-05 0.0123709)
(0.000366302 -5.05648e-05 0.012228)
(0.00027596 -5.44366e-05 0.0121019)
(0.000170897 -5.67258e-05 0.0120173)
(5.78012e-05 -5.78012e-05 0.0119756)
(-5.78012e-05 -5.78012e-05 0.0119756)
(-0.000170897 -5.67258e-05 0.0120173)
(-0.00027596 -5.44366e-05 0.0121019)
(-0.000366302 -5.05648e-05 0.012228)
(-0.000433126 -4.48247e-05 0.0123709)
(0.000423191 -0.000132738 0.0123896)
(0.000358516 -0.000149427 0.0122614)
(0.000270455 -0.000160839 0.0121408)
(0.000167656 -0.000167656 0.0120583)
(5.67258e-05 -0.000170897 0.0120173)
(-5.67258e-05 -0.000170897 0.0120173)
(-0.000167656 -0.000167656 0.0120583)
(-0.000270455 -0.000160839 0.0121408)
(-0.000358516 -0.000149427 0.0122614)
(-0.000423191 -0.000132738 0.0123896)
(0.000404107 -0.000213242 0.0124167)
(0.000342992 -0.000240334 0.0123238)
(0.000259103 -0.000259103 0.0122177)
(0.000160839 -0.000270455 0.0121408)
(5.44366e-05 -0.00027596 0.0121019)
(-5.44366e-05 -0.00027596 0.0121019)
(-0.000160839 -0.000270455 0.0121408)
(-0.000259103 -0.000259103 0.0122177)
(-0.000342992 -0.000240334 0.0123238)
(-0.000404107 -0.000213242 0.0124167)
(0.000374206 -0.000282314 0.0124189)
(0.000317905 -0.000317905 0.0123965)
(0.000240334 -0.000342992 0.0123238)
(0.000149427 -0.000358516 0.0122614)
(5.05648e-05 -0.000366302 0.012228)
(-5.05648e-05 -0.000366302 0.012228)
(-0.000149427 -0.000358516 0.0122614)
(-0.000240334 -0.000342992 0.0123238)
(-0.000317905 -0.000317904 0.0123965)
(-0.000374206 -0.000282314 0.0124189)
(0.000334964 -0.000334964 0.0123269)
(0.000282314 -0.000374206 0.0124189)
(0.000213242 -0.000404107 0.0124167)
(0.000132738 -0.000423191 0.0123896)
(4.48247e-05 -0.000433126 0.0123709)
(-4.48247e-05 -0.000433126 0.0123709)
(-0.000132738 -0.000423191 0.0123896)
(-0.000213242 -0.000404107 0.0124167)
(-0.000282314 -0.000374206 0.0124189)
(-0.000334964 -0.000334964 0.0123269)
(0.00011334 0.00011334 0.0124303)
(0.00010305 0.000141547 0.0125786)
(8.32169e-05 0.000162545 0.0126201)
(5.36844e-05 0.000177249 0.0126222)
(1.84484e-05 0.000184872 0.0126178)
(-1.84484e-05 0.000184872 0.0126178)
(-5.36844e-05 0.000177249 0.0126222)
(-8.32169e-05 0.000162545 0.0126201)
(-0.00010305 0.000141547 0.0125786)
(-0.00011334 0.00011334 0.0124303)
(0.000141547 0.00010305 0.0125786)
(0.00013005 0.00013005 0.012625)
(0.000104274 0.00015033 0.0126028)
(6.7171e-05 0.000163774 0.0125728)
(2.31153e-05 0.000170599 0.012555)
(-2.31153e-05 0.000170599 0.012555)
(-6.7171e-05 0.000163775 0.0125728)
(-0.000104274 0.00015033 0.0126028)
(-0.00013005 0.00013005 0.012625)
(-0.000141547 0.00010305 0.0125786)
(0.000162545 8.32169e-05 0.0126201)
(0.00015033 0.000104274 0.0126028)
(0.000120358 0.000120358 0.0125498)
(7.73663e-05 0.000130866 0.0125061)
(2.6621e-05 0.000136117 0.0124829)
(-2.6621e-05 0.000136117 0.0124829)
(-7.73663e-05 0.000130866 0.0125061)
(-0.000120358 0.000120358 0.0125498)
(-0.00015033 0.000104274 0.0126028)
(-0.000162545 8.32169e-05 0.0126201)
(0.000177249 5.36844e-05 0.0126222)
(0.000163774 6.7171e-05 0.0125728)
(0.000130866 7.73663e-05 0.0125061)
(8.39853e-05 8.39853e-05 0.0124565)
(2.88868e-05 8.72655e-05 0.012431)
(-2.88868e-05 8.72655e-05 0.012431)
(-8.39852e-05 8.39853e-05 0.0124565)
(-0.000130866 7.73663e-05 0.0125061)
(-0.000163774 6.7171e-05 0.0125728)
(-0.000177249 5.36844e-05 0.0126222)
(0.000184872 1.84484e-05 0.0126178)
(0.000170599 2.31153e-05 0.012555)
(0.000136117 2.6621e-05 0.0124829)
(8.72655e-05 2.88868e-05 0.012431)
(3.00042e-05 3.00042e-05 0.0124047)
(-3.00042e-05 3.00042e-05 0.0124047)
(-8.72654e-05 2.88868e-05 0.012431)
(-0.000136117 2.6621e-05 0.0124829)
(-0.000170599 2.31153e-05 0.012555)
(-0.000184872 1.84484e-05 0.0126178)
(0.000184872 -1.84484e-05 0.0126178)
(0.000170599 -2.31153e-05 0.012555)
(0.000136117 -2.6621e-05 0.0124829)
(8.72655e-05 -2.88868e-05 0.012431)
(3.00042e-05 -3.00042e-05 0.0124047)
(-3.00042e-05 -3.00042e-05 0.0124047)
(-8.72654e-05 -2.88868e-05 0.012431)
(-0.000136117 -2.6621e-05 0.0124829)
(-0.000170599 -2.31153e-05 0.012555)
(-0.000184872 -1.84484e-05 0.0126178)
(0.000177249 -5.36844e-05 0.0126222)
(0.000163774 -6.7171e-05 0.0125728)
(0.000130866 -7.73663e-05 0.0125061)
(8.39853e-05 -8.39852e-05 0.0124565)
(2.88868e-05 -8.72654e-05 0.012431)
(-2.88868e-05 -8.72654e-05 0.012431)
(-8.39852e-05 -8.39852e-05 0.0124565)
(-0.000130866 -7.73663e-05 0.0125061)
(-0.000163775 -6.7171e-05 0.0125728)
(-0.000177249 -5.36844e-05 0.0126222)
(0.000162545 -8.32169e-05 0.0126201)
(0.00015033 -0.000104274 0.0126028)
(0.000120358 -0.000120358 0.0125498)
(7.73663e-05 -0.000130866 0.0125061)
(2.6621e-05 -0.000136117 0.0124829)
(-2.6621e-05 -0.000136117 0.0124829)
(-7.73663e-05 -0.000130866 0.0125061)
(-0.000120358 -0.000120358 0.0125498)
(-0.00015033 -0.000104274 0.0126028)
(-0.000162544 -8.32168e-05 0.0126201)
(0.000141547 -0.00010305 0.0125786)
(0.00013005 -0.00013005 0.012625)
(0.000104274 -0.00015033 0.0126028)
(6.7171e-05 -0.000163774 0.0125728)
(2.31153e-05 -0.000170599 0.012555)
(-2.31153e-05 -0.000170599 0.012555)
(-6.7171e-05 -0.000163774 0.0125728)
(-0.000104274 -0.00015033 0.0126028)
(-0.00013005 -0.00013005 0.012625)
(-0.000141547 -0.00010305 0.0125786)
(0.00011334 -0.00011334 0.0124303)
(0.00010305 -0.000141547 0.0125786)
(8.32169e-05 -0.000162545 0.0126201)
(5.36844e-05 -0.000177249 0.0126222)
(1.84484e-05 -0.000184872 0.0126178)
(-1.84484e-05 -0.000184872 0.0126178)
(-5.36844e-05 -0.000177249 0.0126222)
(-8.32168e-05 -0.000162544 0.0126201)
(-0.00010305 -0.000141547 0.0125786)
(-0.00011334 -0.00011334 0.0124303)
(3.94292e-05 3.94292e-05 0.0123884)
(3.69166e-05 5.0865e-05 0.0125686)
(3.08885e-05 5.97592e-05 0.0126377)
(2.02624e-05 6.62993e-05 0.0126598)
(7.02226e-06 6.9716e-05 0.0126656)
(-7.02226e-06 6.9716e-05 0.0126656)
(-2.02624e-05 6.62994e-05 0.0126598)
(-3.08885e-05 5.97592e-05 0.0126377)
(-3.69166e-05 5.0865e-05 0.0125686)
(-3.94292e-05 3.94292e-05 0.0123884)
(5.0865e-05 3.69166e-05 0.0125686)
(4.89278e-05 4.89278e-05 0.0126589)
(4.05505e-05 5.82822e-05 0.0126725)
(2.66147e-05 6.47368e-05 0.0126672)
(9.24024e-06 6.80714e-05 0.0126619)
(-9.24022e-06 6.80714e-05 0.0126619)
(-2.66147e-05 6.47369e-05 0.0126672)
(-4.05505e-05 5.82822e-05 0.0126725)
(-4.89278e-05 4.89278e-05 0.0126589)
(-5.0865e-05 3.69166e-05 0.0125686)
(5.97592e-05 3.08885e-05 0.0126377)
(5.82822e-05 4.05505e-05 0.0126725)
(4.83046e-05 4.83046e-05 0.0126602)
(3.16959e-05 5.36061e-05 0.0126437)
(1.10135e-05 5.6323e-05 0.0126341)
(-1.10135e-05 5.6323e-05 0.0126341)
(-3.16958e-05 5.36061e-05 0.0126437)
(-4.83046e-05 4.83046e-05 0.0126602)
(-5.82822e-05 4.05505e-05 0.0126725)
(-5.97592e-05 3.08885e-05 0.0126377)
(6.62993e-05 2.02624e-05 0.0126598)
(6.47368e-05 2.66147e-05 0.0126672)
(5.36061e-05 3.16959e-05 0.0126437)
(3.51589e-05 3.51589e-05 0.0126226)
(1.22198e-05 3.69246e-05 0.0126112)
(-1.22197e-05 3.69246e-05 0.0126112)
(-3.51589e-05 3.51589e-05 0.0126226)
(-5.36061e-05 3.16959e-05 0.0126437)
(-6.47368e-05 2.66147e-05 0.0126672)
(-6.62994e-05 2.02624e-05 0.0126598)
(6.9716e-05 7.02226e-06 0.0126656)
(6.80714e-05 9.24025e-06 0.0126619)
(5.6323e-05 1.10135e-05 0.0126341)
(3.69246e-05 1.22198e-05 0.0126112)
(1.28328e-05 1.28328e-05 0.012599)
(-1.28328e-05 1.28328e-05 0.012599)
(-3.69246e-05 1.22198e-05 0.0126112)
(-5.6323e-05 1.10135e-05 0.0126341)
(-6.80714e-05 9.24023e-06 0.0126619)
(-6.9716e-05 7.02226e-06 0.0126656)
(6.9716e-05 -7.02226e-06 0.0126656)
(6.80714e-05 -9.24022e-06 0.0126619)
(5.6323e-05 -1.10135e-05 0.0126341)
(3.69246e-05 -1.22197e-05 0.0126112)
(1.28328e-05 -1.28328e-05 0.012599)
(-1.28328e-05 -1.28328e-05 0.012599)
(-3.69246e-05 -1.22198e-05 0.0126112)
(-5.6323e-05 -1.10135e-05 0.0126341)
(-6.80714e-05 -9.24024e-06 0.0126619)
(-6.9716e-05 -7.02226e-06 0.0126656)
(6.62994e-05 -2.02624e-05 0.0126598)
(6.47369e-05 -2.66147e-05 0.0126672)
(5.36061e-05 -3.16958e-05 0.0126437)
(3.51589e-05 -3.51589e-05 0.0126226)
(1.22198e-05 -3.69246e-05 0.0126112)
(-1.22198e-05 -3.69246e-05 0.0126112)
(-3.51589e-05 -3.51589e-05 0.0126226)
(-5.36061e-05 -3.16959e-05 0.0126437)
(-6.47368e-05 -2.66147e-05 0.0126672)
(-6.62993e-05 -2.02624e-05 0.0126598)
(5.97592e-05 -3.08885e-05 0.0126377)
(5.82822e-05 -4.05505e-05 0.0126725)
(4.83046e-05 -4.83046e-05 0.0126602)
(3.16958e-05 -5.36061e-05 0.0126437)
(1.10135e-05 -5.6323e-05 0.0126341)
(-1.10135e-05 -5.6323e-05 0.0126341)
(-3.16959e-05 -5.36061e-05 0.0126437)
(-4.83046e-05 -4.83046e-05 0.0126602)
(-5.82822e-05 -4.05505e-05 0.0126725)
(-5.97592e-05 -3.08884e-05 0.0126377)
(5.0865e-05 -3.69166e-05 0.0125686)
(4.89278e-05 -4.89278e-05 0.0126589)
(4.05505e-05 -5.82822e-05 0.0126725)
(2.66147e-05 -6.47368e-05 0.0126672)
(9.24022e-06 -6.80714e-05 0.0126619)
(-9.24024e-06 -6.80714e-05 0.0126619)
(-2.66147e-05 -6.47368e-05 0.0126672)
(-4.05505e-05 -5.82822e-05 0.0126725)
(-4.89278e-05 -4.89278e-05 0.0126589)
(-5.0865e-05 -3.69166e-05 0.0125686)
(3.94292e-05 -3.94292e-05 0.0123884)
(3.69166e-05 -5.0865e-05 0.0125686)
(3.08885e-05 -5.97592e-05 0.0126377)
(2.02624e-05 -6.62994e-05 0.0126598)
(7.02226e-06 -6.9716e-05 0.0126656)
(-7.02227e-06 -6.9716e-05 0.0126656)
(-2.02624e-05 -6.62993e-05 0.0126598)
(-3.08884e-05 -5.97591e-05 0.0126377)
(-3.69166e-05 -5.0865e-05 0.0125686)
(-3.94293e-05 -3.94293e-05 0.0123884)
(1.2645e-05 1.2645e-05 0.0123619)
(1.24489e-05 1.72893e-05 0.0125502)
(1.09147e-05 2.09557e-05 0.0126281)
(7.32219e-06 2.37213e-05 0.012657)
(2.56729e-06 2.51689e-05 0.0126665)
(-2.56729e-06 2.51689e-05 0.0126665)
(-7.32217e-06 2.37213e-05 0.012657)
(-1.09147e-05 2.09557e-05 0.0126281)
(-1.24489e-05 1.72893e-05 0.0125502)
(-1.2645e-05 1.2645e-05 0.0123619)
(1.72893e-05 1.24489e-05 0.0125502)
(1.75425e-05 1.75425e-05 0.0126556)
(1.50874e-05 2.15952e-05 0.0126828)
(1.01086e-05 2.4458e-05 0.0126876)
(3.54389e-06 2.59463e-05 0.0126875)
(-3.54389e-06 2.59463e-05 0.0126875)
(-1.01086e-05 2.4458e-05 0.0126876)
(-1.50874e-05 2.15952e-05 0.0126828)
(-1.75425e-05 1.75425e-05 0.0126556)
(-1.72893e-05 1.24489e-05 0.0125502)
(2.09557e-05 1.09147e-05 0.0126281)
(2.15952e-05 1.50874e-05 0.0126828)
(1.85294e-05 1.85294e-05 0.0126878)
(1.24018e-05 2.09367e-05 0.0126836)
(4.34893e-06 2.2182e-05 0.0126804)
(-4.34893e-06 2.2182e-05 0.0126804)
(-1.24018e-05 2.09367e-05 0.0126836)
(-1.85294e-05 1.85294e-05 0.0126878)
(-2.15952e-05 1.50874e-05 0.0126828)
(-2.09557e-05 1.09147e-05 0.0126281)
(2.37213e-05 7.32218e-06 0.012657)
(2.4458e-05 1.01086e-05 0.0126876)
(2.09367e-05 1.24018e-05 0.0126836)
(1.39978e-05 1.39978e-05 0.0126762)
(4.90833e-06 1.482e-05 0.0126719)
(-4.90833e-06 1.482e-05 0.0126719)
(-1.39978e-05 1.39978e-05 0.0126762)
(-2.09367e-05 1.24018e-05 0.0126836)
(-2.4458e-05 1.01086e-05 0.0126876)
(-2.37213e-05 7.32217e-06 0.012657)
(2.51689e-05 2.56729e-06 0.0126665)
(2.59463e-05 3.54388e-06 0.0126875)
(2.2182e-05 4.34893e-06 0.0126804)
(1.482e-05 4.90833e-06 0.0126719)
(5.19586e-06 5.19586e-06 0.0126671)
(-5.19585e-06 5.19586e-06 0.0126671)
(-1.482e-05 4.90834e-06 0.0126719)
(-2.21819e-05 4.34894e-06 0.0126804)
(-2.59463e-05 3.54389e-06 0.0126875)
(-2.51689e-05 2.56728e-06 0.0126665)
(2.51689e-05 -2.56729e-06 0.0126665)
(2.59463e-05 -3.54388e-06 0.0126875)
(2.2182e-05 -4.34893e-06 0.0126804)
(1.482e-05 -4.90833e-06 0.0126719)
(5.19587e-06 -5.19585e-06 0.0126671)
(-5.19585e-06 -5.19585e-06 0.0126671)
(-1.482e-05 -4.90832e-06 0.0126719)
(-2.2182e-05 -4.34893e-06 0.0126804)
(-2.59463e-05 -3.54389e-06 0.0126875)
(-2.51689e-05 -2.56729e-06 0.0126665)
(2.37213e-05 -7.32217e-06 0.012657)
(2.4458e-05 -1.01086e-05 0.0126876)
(2.09367e-05 -1.24018e-05 0.0126836)
(1.39978e-05 -1.39978e-05 0.0126762)
(4.90834e-06 -1.482e-05 0.0126719)
(-4.90832e-06 -1.482e-05 0.0126719)
(-1.39978e-05 -1.39978e-05 0.0126762)
(-2.09367e-05 -1.24018e-05 0.0126836)
(-2.4458e-05 -1.01086e-05 0.0126876)
(-2.37213e-05 -7.32216e-06 0.012657)
(2.09557e-05 -1.09147e-05 0.0126281)
(2.15952e-05 -1.50874e-05 0.0126828)
(1.85294e-05 -1.85294e-05 0.0126878)
(1.24018e-05 -2.09367e-05 0.0126836)
(4.34893e-06 -2.21819e-05 0.0126804)
(-4.34893e-06 -2.2182e-05 0.0126804)
(-1.24018e-05 -2.09367e-05 0.0126836)
(-1.85294e-05 -1.85294e-05 0.0126878)
(-2.15952e-05 -1.50874e-05 0.0126828)
(-2.09557e-05 -1.09146e-05 0.0126281)
(1.72893e-05 -1.24489e-05 0.0125502)
(1.75425e-05 -1.75425e-05 0.0126556)
(1.50874e-05 -2.15952e-05 0.0126828)
(1.01086e-05 -2.4458e-05 0.0126876)
(3.54388e-06 -2.59463e-05 0.0126875)
(-3.54388e-06 -2.59463e-05 0.0126875)
(-1.01086e-05 -2.4458e-05 0.0126876)
(-1.50874e-05 -2.15952e-05 0.0126828)
(-1.75425e-05 -1.75425e-05 0.0126556)
(-1.72893e-05 -1.24489e-05 0.0125502)
(1.2645e-05 -1.2645e-05 0.0123619)
(1.24489e-05 -1.72893e-05 0.0125502)
(1.09147e-05 -2.09557e-05 0.0126281)
(7.32217e-06 -2.37213e-05 0.012657)
(2.56728e-06 -2.51689e-05 0.0126665)
(-2.56729e-06 -2.51689e-05 0.0126665)
(-7.32217e-06 -2.37213e-05 0.012657)
(-1.09147e-05 -2.09557e-05 0.0126281)
(-1.24489e-05 -1.72893e-05 0.0125502)
(-1.2645e-05 -1.2645e-05 0.0123619)
(3.52044e-06 3.52043e-06 0.0123536)
(3.68143e-06 5.24234e-06 0.0125441)
(3.40163e-06 6.62032e-06 0.0126246)
(2.33571e-06 7.70617e-06 0.0126558)
(8.29592e-07 8.27352e-06 0.0126665)
(-8.29588e-07 8.27352e-06 0.0126665)
(-2.3357e-06 7.70617e-06 0.0126558)
(-3.40163e-06 6.62033e-06 0.0126246)
(-3.68143e-06 5.24235e-06 0.0125441)
(-3.52044e-06 3.52043e-06 0.0123536)
(5.24234e-06 3.68143e-06 0.0125441)
(5.63628e-06 5.63629e-06 0.0126541)
(5.04837e-06 7.2495e-06 0.012686)
(3.45851e-06 8.42805e-06 0.0126944)
(1.22565e-06 9.0484e-06 0.0126963)
(-1.22564e-06 9.0484e-06 0.0126963)
(-3.45849e-06 8.42805e-06 0.0126944)
(-5.04838e-06 7.24952e-06 0.012686)
(-5.6363e-06 5.6363e-06 0.0126541)
(-5.24234e-06 3.68143e-06 0.0125441)
(6.62031e-06 3.40163e-06 0.0126246)
(7.2495e-06 5.04837e-06 0.012686)
(6.46502e-06 6.46502e-06 0.0126973)
(4.42351e-06 7.48866e-06 0.0126978)
(1.56741e-06 8.0264e-06 0.012697)
(-1.56739e-06 8.0264e-06 0.012697)
(-4.42349e-06 7.48866e-06 0.0126978)
(-6.46501e-06 6.46502e-06 0.0126973)
(-7.24951e-06 5.04839e-06 0.012686)
(-6.62032e-06 3.40164e-06 0.0126246)
(7.70616e-06 2.33571e-06 0.0126558)
(8.42804e-06 3.45851e-06 0.0126944)
(7.48866e-06 4.42352e-06 0.0126978)
(5.11694e-06 5.11694e-06 0.0126957)
(1.81272e-06 5.48008e-06 0.0126942)
(-1.81271e-06 5.48008e-06 0.0126942)
(-5.11693e-06 5.11694e-06 0.0126957)
(-7.48864e-06 4.42351e-06 0.0126978)
(-8.42804e-06 3.45851e-06 0.0126944)
(-7.70617e-06 2.33571e-06 0.0126558)
(8.27352e-06 8.29592e-07 0.0126665)
(9.0484e-06 1.22566e-06 0.0126963)
(8.0264e-06 1.56741e-06 0.012697)
(5.48007e-06 1.81272e-06 0.0126942)
(1.94099e-06 1.94099e-06 0.0126923)
(-1.94098e-06 1.94099e-06 0.0126923)
(-5.48006e-06 1.81272e-06 0.0126942)
(-8.02638e-06 1.5674e-06 0.012697)
(-9.04839e-06 1.22565e-06 0.0126963)
(-8.27352e-06 8.29592e-07 0.0126665)
(8.27352e-06 -8.29587e-07 0.0126665)
(9.0484e-06 -1.22564e-06 0.0126963)
(8.02639e-06 -1.56739e-06 0.012697)
(5.48007e-06 -1.81271e-06 0.0126942)
(1.94099e-06 -1.94098e-06 0.0126923)
(-1.94098e-06 -1.94098e-06 0.0126923)
(-5.48006e-06 -1.81271e-06 0.0126942)
(-8.02638e-06 -1.5674e-06 0.012697)
(-9.04839e-06 -1.22565e-06 0.0126963)
(-8.27351e-06 -8.29592e-07 0.0126665)
(7.70616e-06 -2.3357e-06 0.0126558)
(8.42805e-06 -3.4585e-06 0.0126944)
(7.48866e-06 -4.4235e-06 0.0126978)
(5.11694e-06 -5.11693e-06 0.0126957)
(1.81272e-06 -5.48006e-06 0.0126942)
(-1.81271e-06 -5.48006e-06 0.0126942)
(-5.11693e-06 -5.11693e-06 0.0126957)
(-7.48864e-06 -4.42349e-06 0.0126978)
(-8.42804e-06 -3.4585e-06 0.0126944)
(-7.70616e-06 -2.33571e-06 0.0126558)
(6.62032e-06 -3.40163e-06 0.0126246)
(7.24952e-06 -5.04837e-06 0.012686)
(6.46502e-06 -6.46501e-06 0.0126973)
(4.4235e-06 -7.48865e-06 0.0126978)
(1.5674e-06 -8.02639e-06 0.012697)
(-1.56739e-06 -8.02638e-06 0.012697)
(-4.42349e-06 -7.48864e-06 0.0126978)
(-6.46502e-06 -6.46501e-06 0.0126973)
(-7.24951e-06 -5.04838e-06 0.012686)
(-6.62031e-06 -3.40162e-06 0.0126246)
(5.24235e-06 -3.68144e-06 0.0125441)
(5.6363e-06 -5.6363e-06 0.0126541)
(5.04838e-06 -7.24952e-06 0.012686)
(3.4585e-06 -8.42805e-06 0.0126944)
(1.22565e-06 -9.04839e-06 0.0126963)
(-1.22564e-06 -9.04839e-06 0.0126963)
(-3.4585e-06 -8.42804e-06 0.0126944)
(-5.04839e-06 -7.24951e-06 0.012686)
(-5.63629e-06 -5.63629e-06 0.0126541)
(-5.24233e-06 -3.68141e-06 0.0125441)
(3.52045e-06 -3.52044e-06 0.0123536)
(3.68144e-06 -5.24235e-06 0.0125441)
(3.40163e-06 -6.62033e-06 0.0126246)
(2.33571e-06 -7.70617e-06 0.0126558)
(8.29601e-07 -8.27352e-06 0.0126665)
(-8.29591e-07 -8.27352e-06 0.0126665)
(-2.33571e-06 -7.70616e-06 0.0126558)
(-3.40163e-06 -6.62032e-06 0.0126246)
(-3.68142e-06 -5.24233e-06 0.0125441)
(-3.52044e-06 -3.52043e-06 0.0123536)
(9.57585e-07 9.57585e-07 0.0123506)
(1.05383e-06 1.5286e-06 0.0125417)
(1.01575e-06 1.98876e-06 0.0126231)
(7.08586e-07 2.36718e-06 0.012655)
(2.54606e-07 2.56441e-06 0.0126662)
(-2.54601e-07 2.56441e-06 0.0126662)
(-7.08581e-07 2.36717e-06 0.012655)
(-1.01574e-06 1.98876e-06 0.0126231)
(-1.05383e-06 1.5286e-06 0.0125417)
(-9.5758e-07 9.57579e-07 0.0123506)
(1.52861e-06 1.05383e-06 0.0125417)
(1.7225e-06 1.7225e-06 0.0126533)
(1.59346e-06 2.29152e-06 0.0126869)
(1.10992e-06 2.72088e-06 0.0126966)
(3.96856e-07 2.94948e-06 0.0126992)
(-3.96856e-07 2.94948e-06 0.0126992)
(-1.10992e-06 2.72087e-06 0.0126966)
(-1.59345e-06 2.29151e-06 0.0126869)
(-1.7225e-06 1.7225e-06 0.0126533)
(-1.5286e-06 1.05383e-06 0.0125417)
(1.98877e-06 1.01574e-06 0.0126231)
(2.29152e-06 1.59346e-06 0.0126869)
(2.10989e-06 2.10989e-06 0.0127005)
(1.46981e-06 2.49554e-06 0.0127028)
(5.25417e-07 2.70126e-06 0.0127029)
(-5.25422e-07 2.70126e-06 0.0127029)
(-1.46981e-06 2.49553e-06 0.0127028)
(-2.10988e-06 2.10988e-06 0.0127005)
(-2.29151e-06 1.59345e-06 0.0126869)
(-1.98876e-06 1.01575e-06 0.0126231)
(2.36718e-06 7.08584e-07 0.012655)
(2.72089e-06 1.10992e-06 0.0126966)
(2.49554e-06 1.46981e-06 0.0127028)
(1.73716e-06 1.73716e-06 0.0127028)
(6.20939e-07 1.87958e-06 0.0127024)
(-6.20942e-07 1.87958e-06 0.0127024)
(-1.73716e-06 1.73717e-06 0.0127028)
(-2.49553e-06 1.46982e-06 0.0127028)
(-2.72087e-06 1.10992e-06 0.0126966)
(-2.36717e-06 7.0859e-07 0.012655)
(2.56441e-06 2.54607e-07 0.0126662)
(2.94948e-06 3.96856e-07 0.0126992)
(2.70126e-06 5.25416e-07 0.0127029)
(1.87958e-06 6.2094e-07 0.0127024)
(6.71805e-07 6.71805e-07 0.0127017)
(-6.71802e-07 6.71808e-07 0.0127017)
(-1.87957e-06 6.20946e-07 0.0127024)
(-2.70125e-06 5.25424e-07 0.0127029)
(-2.94947e-06 3.96859e-07 0.0126992)
(-2.56441e-06 2.54609e-07 0.0126662)
(2.56441e-06 -2.54603e-07 0.0126662)
(2.94948e-06 -3.96855e-07 0.0126992)
(2.70126e-06 -5.25417e-07 0.0127029)
(1.87958e-06 -6.20939e-07 0.0127024)
(6.71807e-07 -6.71801e-07 0.0127017)
(-6.71801e-07 -6.718e-07 0.0127017)
(-1.87957e-06 -6.20936e-07 0.0127024)
(-2.70125e-06 -5.25413e-07 0.0127029)
(-2.94947e-06 -3.96853e-07 0.0126992)
(-2.56441e-06 -2.54608e-07 0.0126662)
(2.36717e-06 -7.08582e-07 0.012655)
(2.72088e-06 -1.10992e-06 0.0126966)
(2.49554e-06 -1.46981e-06 0.0127028)
(1.73716e-06 -1.73716e-06 0.0127028)
(6.20944e-07 -1.87957e-06 0.0127024)
(-6.20938e-07 -1.87957e-06 0.0127024)
(-1.73716e-06 -1.73716e-06 0.0127028)
(-2.49553e-06 -1.46981e-06 0.0127028)
(-2.72087e-06 -1.10992e-06 0.0126966)
(-2.36717e-06 -7.0859e-07 0.012655)
(1.98876e-06 -1.01574e-06 0.0126231)
(2.29152e-06 -1.59345e-06 0.0126869)
(2.10988e-06 -2.10988e-06 0.0127005)
(1.46982e-06 -2.49553e-06 0.0127028)
(5.25423e-07 -2.70125e-06 0.0127029)
(-5.25417e-07 -2.70125e-06 0.0127029)
(-1.46981e-06 -2.49553e-06 0.0127028)
(-2.10988e-06 -2.10988e-06 0.0127005)
(-2.29151e-06 -1.59345e-06 0.0126869)
(-1.98876e-06 -1.01574e-06 0.0126231)
(1.5286e-06 -1.05382e-06 0.0125417)
(1.72249e-06 -1.7225e-06 0.0126533)
(1.59346e-06 -2.29151e-06 0.0126869)
(1.10993e-06 -2.72087e-06 0.0126966)
(3.96856e-07 -2.94947e-06 0.0126992)
(-3.96859e-07 -2.94947e-06 0.0126992)
(-1.10992e-06 -2.72087e-06 0.0126966)
(-1.59345e-06 -2.29151e-06 0.0126869)
(-1.7225e-06 -1.7225e-06 0.0126533)
(-1.5286e-06 -1.05383e-06 0.0125417)
(9.57577e-07 -9.57578e-07 0.0123506)
(1.05383e-06 -1.5286e-06 0.0125417)
(1.01575e-06 -1.98875e-06 0.0126231)
(7.08592e-07 -2.36717e-06 0.012655)
(2.54603e-07 -2.56441e-06 0.0126662)
(-2.54606e-07 -2.56441e-06 0.0126662)
(-7.08582e-07 -2.36717e-06 0.012655)