/*--------------------------------*- C++ -*----------------------------------*\
| =========                 |                                                 |
| \\      /  F ield         | OpenFOAM: The Open Source CFD Toolbox           |
|  \\    /   O peration     | Version:  2412                                  |
|   \\  /    A nd           | Website:  www.openfoam.com                      |
|    \\/     M anipulation  |                                                 |
\*---------------------------------------------------------------------------*/
FoamFile
{
    version     2.0;
    format      ascii;
    arch        "LSB;label=32;scalar=64";
    class       surfaceScalarField;
    location    "2";
    object      phi;
}
// * * * * * * * * * * * * * * * * * * * * * * * * * * * * * * * * * * * * * //

dimensions      [0 3 -1 0 0 0 0];

oriented        oriented;

internalField   nonuniform List<scalar> 
43700
(
1.42647e-07
1.42647e-07
5.35667e-07
-1.75471e-07
-1.75471e-07
1.04194e-07
1.24602e-07
5.75494e-07
-1.52259e-07
6.88025e-08
1.14482e-07
6.04939e-07
-1.44599e-07
3.40904e-08
1.07754e-07
6.24428e-07
-1.37758e-07
-1.57783e-15
1.04603e-07
6.34174e-07
-1.34758e-07
-3.40904e-08
1.04603e-07
6.34174e-07
-1.34758e-07
-6.88025e-08
1.07754e-07
6.24428e-07
-1.37758e-07
-1.04194e-07
1.14482e-07
6.04939e-07
-1.44599e-07
-1.42647e-07
1.24602e-07
5.75494e-07
-1.52259e-07
1.42647e-07
5.35667e-07
-1.75471e-07
-1.75471e-07
1.24602e-07
1.04194e-07
5.75494e-07
-1.52259e-07
9.26558e-08
9.26558e-08
6.09735e-07
6.12187e-08
8.44856e-08
6.35124e-07
3.03739e-08
7.90608e-08
6.52035e-07
-7.34672e-16
7.64428e-08
6.60507e-07
-3.03739e-08
7.64428e-08
6.60507e-07
-6.12187e-08
7.90608e-08
6.52035e-07
-9.26558e-08
8.44856e-08
6.35124e-07
-1.24602e-07
9.26558e-08
6.09735e-07
1.04194e-07
5.75494e-07
-1.52259e-07
1.14482e-07
6.88025e-08
6.04939e-07
-1.44599e-07
8.44856e-08
6.12187e-08
6.35124e-07
5.55586e-08
5.55586e-08
6.57727e-07
2.75168e-08
5.17979e-08
6.72867e-07
1.0392e-15
4.99666e-08
6.80471e-07
-2.75168e-08
4.99666e-08
6.80471e-07
-5.55586e-08
5.17979e-08
6.72867e-07
-8.44856e-08
5.55586e-08
6.57727e-07
-1.14482e-07
6.12187e-08
6.35124e-07
6.88025e-08
6.04939e-07
-1.44599e-07
1.07754e-07
3.40904e-08
6.24428e-07
-1.37758e-07
7.90608e-08
3.03739e-08
6.52035e-07
5.17979e-08
2.75168e-08
6.72867e-07
2.56059e-08
2.56059e-08
6.86887e-07
1.51225e-15
2.46709e-08
6.93944e-07
-2.56059e-08
2.46709e-08
6.93944e-07
-5.17979e-08
2.56059e-08
6.86887e-07
-7.90608e-08
2.75168e-08
6.72867e-07
-1.07754e-07
3.03739e-08
6.52035e-07
3.40904e-08
6.24428e-07
-1.37758e-07
1.04603e-07
-3.6064e-15
6.34174e-07
-1.34758e-07
7.64428e-08
-1.73215e-15
6.60507e-07
4.99666e-08
9.4917e-16
6.80471e-07
2.46709e-08
2.5289e-15
6.93944e-07
1.81964e-15
2.47574e-15
7.00734e-07
-2.46709e-08
1.13652e-15
7.00734e-07
-4.99666e-08
6.33041e-16
6.93944e-07
-7.64428e-08
1.55491e-15
6.80471e-07
-1.04603e-07
4.77909e-15
6.60507e-07
3.86595e-15
6.34174e-07
-1.34758e-07
1.04603e-07
-3.40904e-08
6.34174e-07
-1.34758e-07
7.64428e-08
-3.03739e-08
6.60507e-07
4.99666e-08
-2.75168e-08
6.80471e-07
2.46709e-08
-2.56059e-08
6.93944e-07
4.8687e-16
-2.46709e-08
7.00734e-07
-2.46709e-08
-2.46709e-08
7.00734e-07
-4.99666e-08
-2.56059e-08
6.93944e-07
-7.64428e-08
-2.75168e-08
6.80471e-07
-1.04603e-07
-3.03739e-08
6.60507e-07
-3.40904e-08
6.34174e-07
-1.34758e-07
1.07754e-07
-6.88025e-08
6.24428e-07
-1.37758e-07
7.90608e-08
-6.12187e-08
6.52035e-07
5.17979e-08
-5.55586e-08
6.72867e-07
2.56059e-08
-5.17979e-08
6.86887e-07
-3.43838e-16
-4.99666e-08
6.93944e-07
-2.56059e-08
-4.99666e-08
6.93944e-07
-5.17979e-08
-5.17979e-08
6.86887e-07
-7.90608e-08
-5.55586e-08
6.72867e-07
-1.07754e-07
-6.12187e-08
6.52035e-07
-6.88025e-08
6.24428e-07
-1.37758e-07
1.14482e-07
-1.04194e-07
6.04939e-07
-1.44599e-07
8.44856e-08
-9.26558e-08
6.35124e-07
5.55586e-08
-8.44856e-08
6.57727e-07
2.75168e-08
-7.90608e-08
6.72867e-07
7.02245e-16
-7.64428e-08
6.80471e-07
-2.75168e-08
-7.64428e-08
6.80471e-07
-5.55586e-08
-7.90608e-08
6.72867e-07
-8.44856e-08
-8.44856e-08
6.57727e-07
-1.14482e-07
-9.26558e-08
6.35124e-07
-1.04194e-07
6.04939e-07
-1.44599e-07
1.24602e-07
-1.42647e-07
5.75494e-07
-1.52259e-07
9.26558e-08
-1.24602e-07
6.09735e-07
6.12187e-08
-1.14482e-07
6.35124e-07
3.03739e-08
-1.07754e-07
6.52035e-07
3.74887e-15
-1.04603e-07
6.60507e-07
-3.03739e-08
-1.04603e-07
6.60507e-07
-6.12187e-08
-1.07754e-07
6.52035e-07
-9.26558e-08
-1.14482e-07
6.35124e-07
-1.24602e-07
-1.24602e-07
6.09735e-07
-1.42647e-07
5.75494e-07
-1.52259e-07
1.42647e-07
5.35667e-07
-1.75471e-07
-1.75471e-07
1.04194e-07
5.75494e-07
-1.52259e-07
6.88025e-08
6.04939e-07
-1.44599e-07
3.40904e-08
6.24428e-07
-1.37758e-07
3.07979e-15
6.34174e-07
-1.34758e-07
-3.40904e-08
6.34174e-07
-1.34758e-07
-6.88025e-08
6.24428e-07
-1.37758e-07
-1.04194e-07
6.04939e-07
-1.44599e-07
-1.42647e-07
5.75494e-07
-1.52259e-07
5.35667e-07
-1.75471e-07
-1.75471e-07
5.69844e-08
5.69844e-08
5.51072e-07
-6.46872e-08
-6.46872e-08
4.53077e-08
5.67305e-08
5.93989e-07
-6.35491e-08
3.16156e-08
5.70741e-08
6.2589e-07
-6.43335e-08
1.6189e-08
5.70225e-08
6.47112e-07
-6.42801e-08
1.24774e-15
5.70662e-08
6.57757e-07
-6.44598e-08
-1.6189e-08
5.70662e-08
6.57757e-07
-6.44598e-08
-3.16156e-08
5.70224e-08
6.47112e-07
-6.42801e-08
-4.53077e-08
5.70741e-08
6.2589e-07
-6.43335e-08
-5.69843e-08
5.67305e-08
5.93989e-07
-6.35491e-08
5.69844e-08
5.51072e-07
-6.46872e-08
-6.46872e-08
5.67305e-08
4.53077e-08
5.93989e-07
-6.35491e-08
4.58417e-08
4.58417e-08
6.31513e-07
3.22301e-08
4.61944e-08
6.59615e-07
1.66061e-08
4.62333e-08
6.78448e-07
7.48253e-16
4.62603e-08
6.87919e-07
-1.66061e-08
4.62603e-08
6.87919e-07
-3.22301e-08
4.62333e-08
6.78448e-07
-4.58417e-08
4.61944e-08
6.59615e-07
-5.67305e-08
4.58417e-08
6.31513e-07
4.53077e-08
5.93989e-07
-6.35491e-08
5.70741e-08
3.16156e-08
6.2589e-07
-6.43335e-08
4.61944e-08
3.22301e-08
6.59615e-07
3.25044e-08
3.25044e-08
6.85107e-07
1.67696e-08
3.25538e-08
7.02282e-07
1.86459e-15
3.25655e-08
7.10935e-07
-1.67696e-08
3.25655e-08
7.10935e-07
-3.25044e-08
3.25538e-08
7.02282e-07
-4.61944e-08
3.25044e-08
6.85107e-07
-5.70741e-08
3.22301e-08
6.59615e-07
3.16156e-08
6.2589e-07
-6.43335e-08
5.70225e-08
1.6189e-08
6.47112e-07
-6.42801e-08
4.62333e-08
1.66061e-08
6.78448e-07
3.25538e-08
1.67696e-08
7.02282e-07
1.68041e-08
1.68041e-08
7.18386e-07
3.24278e-15
1.68083e-08
7.26505e-07
-1.68041e-08
1.68083e-08
7.26505e-07
-3.25538e-08
1.68041e-08
7.18386e-07
-4.62333e-08
1.67696e-08
7.02282e-07
-5.70225e-08
1.66061e-08
6.78448e-07
1.6189e-08
6.47112e-07
-6.42801e-08
5.70662e-08
-1.32724e-15
6.57757e-07
-6.44598e-08
4.62603e-08
-1.40985e-15
6.87919e-07
3.25655e-08
2.23193e-15
7.10935e-07
1.68083e-08
4.41195e-15
7.26505e-07
3.09326e-15
3.43779e-15
7.34351e-07
-1.68083e-08
1.73414e-15
7.34351e-07
-3.25655e-08
2.20524e-16
7.26505e-07
-4.62603e-08
2.07029e-15
7.10935e-07
-5.70662e-08
6.6082e-15
6.87919e-07
5.19779e-15
6.57757e-07
-6.44598e-08
5.70662e-08
-1.6189e-08
6.57757e-07
-6.44598e-08
4.62603e-08
-1.66061e-08
6.87919e-07
3.25655e-08
-1.67696e-08
7.10935e-07
1.68083e-08
-1.68041e-08
7.26505e-07
1.00679e-15
-1.68083e-08
7.34351e-07
-1.68083e-08
-1.68083e-08
7.34351e-07
-3.25655e-08
-1.68041e-08
7.26505e-07
-4.62603e-08
-1.67696e-08
7.10935e-07
-5.70662e-08
-1.66061e-08
6.87919e-07
-1.6189e-08
6.57757e-07
-6.44599e-08
5.70224e-08
-3.16156e-08
6.47112e-07
-6.42801e-08
4.62333e-08
-3.22301e-08
6.78448e-07
3.25538e-08
-3.25044e-08
7.02282e-07
1.68041e-08
-3.25538e-08
7.18386e-07
-1.89821e-16
-3.25655e-08
7.26505e-07
-1.68041e-08
-3.25655e-08
7.26505e-07
-3.25538e-08
-3.25538e-08
7.18386e-07
-4.62333e-08
-3.25044e-08
7.02282e-07
-5.70225e-08
-3.22301e-08
6.78448e-07
-3.16156e-08
6.47112e-07
-6.42801e-08
5.70741e-08
-4.53077e-08
6.2589e-07
-6.43335e-08
4.61944e-08
-4.58417e-08
6.59615e-07
3.25044e-08
-4.61944e-08
6.85107e-07
1.67696e-08
-4.62333e-08
7.02282e-07
2.12139e-15
-4.62603e-08
7.10935e-07
-1.67696e-08
-4.62603e-08
7.10935e-07
-3.25044e-08
-4.62333e-08
7.02282e-07
-4.61944e-08
-4.61944e-08
6.85107e-07
-5.70741e-08
-4.58417e-08
6.59615e-07
-4.53077e-08
6.2589e-07
-6.43334e-08
5.67305e-08
-5.69844e-08
5.93989e-07
-6.35491e-08
4.58417e-08
-5.67305e-08
6.31513e-07
3.22301e-08
-5.70741e-08
6.59615e-07
1.66061e-08
-5.70225e-08
6.78448e-07
5.40997e-15
-5.70662e-08
6.87919e-07
-1.66061e-08
-5.70662e-08
6.87919e-07
-3.22301e-08
-5.70225e-08
6.78448e-07
-4.58417e-08
-5.70741e-08
6.59615e-07
-5.67305e-08
-5.67305e-08
6.31513e-07
-5.69843e-08
5.93989e-07
-6.35491e-08
5.69844e-08
5.51072e-07
-6.46872e-08
-6.46872e-08
4.53077e-08
5.93989e-07
-6.35491e-08
3.16156e-08
6.2589e-07
-6.43334e-08
1.6189e-08
6.47112e-07
-6.42801e-08
1.85078e-15
6.57757e-07
-6.44598e-08
-1.6189e-08
6.57757e-07
-6.44599e-08
-3.16156e-08
6.47112e-07
-6.42801e-08
-4.53077e-08
6.2589e-07
-6.43335e-08
-5.69844e-08
5.93989e-07
-6.35491e-08
5.51072e-07
-6.46872e-08
-6.46871e-08
2.92379e-08
2.92379e-08
5.54068e-07
-3.07357e-08
-3.07357e-08
2.43163e-08
3.0312e-08
6.00124e-07
-3.15257e-08
1.7383e-08
3.1083e-08
6.34361e-07
-3.26209e-08
9.01513e-09
3.14024e-08
6.57169e-07
-3.30915e-08
-3.47862e-16
3.15559e-08
6.68602e-07
-3.33858e-08
-9.01513e-09
3.15559e-08
6.68602e-07
-3.33858e-08
-1.7383e-08
3.14024e-08
6.57169e-07
-3.30915e-08
-2.43163e-08
3.1083e-08
6.34361e-07
-3.26209e-08
-2.92379e-08
3.0312e-08
6.00124e-07
-3.15257e-08
2.92379e-08
5.54068e-07
-3.07357e-08
-3.07357e-08
3.0312e-08
2.43163e-08
6.00124e-07
-3.15257e-08
2.55165e-08
2.55165e-08
6.41104e-07
1.83198e-08
2.61344e-08
6.71761e-07
9.53839e-09
2.63591e-08
6.92272e-07
-3.42953e-16
2.64472e-08
7.02566e-07
-9.53839e-09
2.64472e-08
7.02566e-07
-1.83198e-08
2.63591e-08
6.92272e-07
-2.55165e-08
2.61344e-08
6.71761e-07
-3.0312e-08
2.55165e-08
6.41104e-07
2.43163e-08
6.00124e-07
-3.15257e-08
3.1083e-08
1.7383e-08
6.34361e-07
-3.26209e-08
2.61344e-08
1.83198e-08
6.71761e-07
1.8747e-08
1.8747e-08
6.99882e-07
9.76036e-09
1.8891e-08
7.18736e-07
1.89734e-15
1.89397e-08
7.28203e-07
-9.76036e-09
1.89397e-08
7.28203e-07
-1.8747e-08
1.8891e-08
7.18736e-07
-2.61344e-08
1.8747e-08
6.99882e-07
-3.1083e-08
1.83198e-08
6.71761e-07
1.7383e-08
6.34361e-07
-3.26209e-08
3.14024e-08
9.01513e-09
6.57169e-07
-3.30915e-08
2.63591e-08
9.53839e-09
6.92272e-07
1.8891e-08
9.76036e-09
7.18736e-07
9.83489e-09
9.8349e-09
7.36499e-07
3.3964e-15
9.85921e-09
7.4542e-07
-9.83489e-09
9.85921e-09
7.4542e-07
-1.8891e-08
9.83489e-09
7.36499e-07
-2.63591e-08
9.76036e-09
7.18736e-07
-3.14023e-08
9.53839e-09
6.92272e-07
9.01513e-09
6.57169e-07
-3.30915e-08
3.15559e-08
-1.34294e-15
6.68602e-07
-3.33858e-08
2.64472e-08
1.14055e-15
7.02566e-07
1.89397e-08
4.32084e-15
7.28203e-07
9.85921e-09
5.2727e-15
7.4542e-07
2.89089e-15
3.84797e-15
7.5407e-07
-9.85921e-09
1.38154e-15
7.5407e-07
-1.89397e-08
-4.10577e-16
7.4542e-07
-2.64472e-08
9.16367e-16
7.28203e-07
-3.15559e-08
3.42663e-15
7.02566e-07
3.27052e-15
6.68602e-07
-3.33858e-08
3.15559e-08
-9.01513e-09
6.68602e-07
-3.33858e-08
2.64472e-08
-9.53839e-09
7.02566e-07
1.89397e-08
-9.76035e-09
7.28203e-07
9.85921e-09
-9.83489e-09
7.4542e-07
-1.94268e-16
-9.85921e-09
7.5407e-07
-9.85921e-09
-9.85921e-09
7.5407e-07
-1.89397e-08
-9.83489e-09
7.4542e-07
-2.64472e-08
-9.76036e-09
7.28203e-07
-3.15559e-08
-9.53838e-09
7.02566e-07
-9.01512e-09
6.68602e-07
-3.33858e-08
3.14024e-08
-1.7383e-08
6.57169e-07
-3.30915e-08
2.63591e-08
-1.83198e-08
6.92272e-07
1.8891e-08
-1.8747e-08
7.18736e-07
9.83489e-09
-1.8891e-08
7.36499e-07
-1.55731e-15
-1.89397e-08
7.4542e-07
-9.83489e-09
-1.89397e-08
7.4542e-07
-1.8891e-08
-1.8891e-08
7.36499e-07
-2.63591e-08
-1.8747e-08
7.18736e-07
-3.14024e-08
-1.83198e-08
6.92272e-07
-1.7383e-08
6.57169e-07
-3.30915e-08
3.1083e-08
-2.43163e-08
6.34361e-07
-3.26209e-08
2.61344e-08
-2.55165e-08
6.71761e-07
1.8747e-08
-2.61344e-08
6.99882e-07
9.76036e-09
-2.63591e-08
7.18736e-07
2.50131e-16
-2.64472e-08
7.28203e-07
-9.76036e-09
-2.64472e-08
7.28203e-07
-1.8747e-08
-2.63591e-08
7.18736e-07
-2.61344e-08
-2.61344e-08
6.99882e-07
-3.1083e-08
-2.55165e-08
6.71761e-07
-2.43163e-08
6.34361e-07
-3.26209e-08
3.0312e-08
-2.92379e-08
6.00124e-07
-3.15257e-08
2.55165e-08
-3.0312e-08
6.41104e-07
1.83198e-08
-3.1083e-08
6.71761e-07
9.53839e-09
-3.14024e-08
6.92272e-07
2.70801e-15
-3.15559e-08
7.02566e-07
-9.53838e-09
-3.15559e-08
7.02566e-07
-1.83198e-08
-3.14024e-08
6.92272e-07
-2.55165e-08
-3.1083e-08
6.71761e-07
-3.0312e-08
-3.0312e-08
6.41104e-07
-2.92379e-08
6.00124e-07
-3.15257e-08
2.92379e-08
5.54068e-07
-3.07357e-08
-3.07357e-08
2.43163e-08
6.00124e-07
-3.15257e-08
1.7383e-08
6.34361e-07
-3.26209e-08
9.01513e-09
6.57169e-07
-3.30915e-08
1.97701e-15
6.68602e-07
-3.33858e-08
-9.01512e-09
6.68602e-07
-3.33858e-08
-1.7383e-08
6.57169e-07
-3.30915e-08
-2.43163e-08
6.34361e-07
-3.26209e-08
-2.92379e-08
6.00124e-07
-3.15257e-08
5.54068e-07
-3.07357e-08
-3.07357e-08
1.0156e-08
1.0156e-08
5.53636e-07
-9.94004e-09
-9.94003e-09
8.95667e-09
1.1442e-08
6.00924e-07
-1.10425e-08
6.65257e-09
1.23813e-08
6.36267e-07
-1.19827e-08
3.52869e-09
1.29215e-08
6.59898e-07
-1.25267e-08
1.01692e-15
1.31882e-08
6.71761e-07
-1.28192e-08
-3.52868e-09
1.31882e-08
6.71761e-07
-1.28192e-08
-6.65256e-09
1.29215e-08
6.59898e-07
-1.25267e-08
-8.95666e-09
1.23813e-08
6.36267e-07
-1.19827e-08
-1.0156e-08
1.1442e-08
6.00924e-07
-1.10426e-08
1.0156e-08
5.53636e-07
-9.94003e-09
-9.94004e-09
1.1442e-08
8.95667e-09
6.00924e-07
-1.10425e-08
1.01886e-08
1.01886e-08
6.43611e-07
7.59951e-09
1.10163e-08
6.75715e-07
4.04513e-09
1.14881e-08
6.9726e-07
6.81172e-16
1.17123e-08
7.08087e-07
-4.04513e-09
1.17123e-08
7.08087e-07
-7.59951e-09
1.14881e-08
6.9726e-07
-1.01886e-08
1.10163e-08
6.75715e-07
-1.1442e-08
1.01886e-08
6.43611e-07
8.95667e-09
6.00924e-07
-1.10425e-08
1.23813e-08
6.65256e-09
6.36267e-07
-1.19827e-08
1.10163e-08
7.59951e-09
6.75715e-07
8.20682e-09
8.20682e-09
7.05501e-07
4.36655e-09
8.54997e-09
7.25515e-07
2.83976e-15
8.7093e-09
7.35573e-07
-4.36655e-09
8.7093e-09
7.35573e-07
-8.20682e-09
8.54996e-09
7.25515e-07
-1.10163e-08
8.20682e-09
7.05501e-07
-1.23813e-08
7.59952e-09
6.75715e-07
6.65256e-09
6.36267e-07
-1.19827e-08
1.29215e-08
3.52868e-09
6.59898e-07
-1.25267e-08
1.14881e-08
4.04513e-09
6.9726e-07
8.54997e-09
4.36655e-09
7.25515e-07
4.54725e-09
4.54725e-09
7.44504e-07
3.5845e-15
4.63014e-09
7.54047e-07
-4.54725e-09
4.63014e-09
7.54047e-07
-8.54996e-09
4.54725e-09
7.44504e-07
-1.14881e-08
4.36655e-09
7.25515e-07
-1.29215e-08
4.04513e-09
6.9726e-07
3.52868e-09
6.59898e-07
-1.25267e-08
1.31882e-08
-3.19651e-16
6.71761e-07
-1.28192e-08
1.17123e-08
-1.6811e-16
7.08087e-07
8.7093e-09
2.61332e-15
7.35573e-07
4.63014e-09
3.52718e-15
7.54047e-07
2.90914e-15
3.0429e-15
7.6333e-07
-4.63013e-09
1.40585e-15
7.6333e-07
-8.70929e-09
1.59451e-16
7.54047e-07
-1.17123e-08
1.11621e-15
7.35573e-07
-1.31882e-08
2.69211e-15
7.08087e-07
3.11476e-15
6.71761e-07
-1.28192e-08
1.31882e-08
-3.52868e-09
6.71761e-07
-1.28192e-08
1.17123e-08
-4.04513e-09
7.08087e-07
8.7093e-09
-4.36655e-09
7.35573e-07
4.63014e-09
-4.54725e-09
7.54047e-07
1.07973e-15
-4.63013e-09
7.6333e-07
-4.63014e-09
-4.63014e-09
7.6333e-07
-8.70929e-09
-4.54725e-09
7.54047e-07
-1.17123e-08
-4.36655e-09
7.35573e-07
-1.31882e-08
-4.04513e-09
7.08087e-07
-3.52868e-09
6.71761e-07
-1.28192e-08
1.29215e-08
-6.65256e-09
6.59898e-07
-1.25267e-08
1.14881e-08
-7.59952e-09
6.9726e-07
8.54997e-09
-8.20682e-09
7.25515e-07
4.54725e-09
-8.54996e-09
7.44504e-07
3.70934e-16
-8.70929e-09
7.54047e-07
-4.54725e-09
-8.70929e-09
7.54047e-07
-8.54996e-09
-8.54996e-09
7.44504e-07
-1.14881e-08
-8.20682e-09
7.25515e-07
-1.29215e-08
-7.59951e-09
6.9726e-07
-6.65255e-09
6.59898e-07
-1.25267e-08
1.23813e-08
-8.95667e-09
6.36267e-07
-1.19827e-08
1.10163e-08
-1.01886e-08
6.75715e-07
8.20682e-09
-1.10163e-08
7.05501e-07
4.36655e-09
-1.14881e-08
7.25515e-07
1.29784e-15
-1.17123e-08
7.35573e-07
-4.36655e-09
-1.17123e-08
7.35573e-07
-8.20682e-09
-1.14881e-08
7.25515e-07
-1.10163e-08
-1.10163e-08
7.05501e-07
-1.23813e-08
-1.01886e-08
6.75715e-07
-8.95666e-09
6.36267e-07
-1.19827e-08
1.1442e-08
-1.0156e-08
6.00924e-07
-1.10425e-08
1.01886e-08
-1.1442e-08
6.43611e-07
7.59951e-09
-1.23813e-08
6.75715e-07
4.04513e-09
-1.29215e-08
6.9726e-07
2.14852e-15
-1.31882e-08
7.08087e-07
-4.04512e-09
-1.31882e-08
7.08087e-07
-7.59951e-09
-1.29215e-08
6.9726e-07
-1.01886e-08
-1.23813e-08
6.75715e-07
-1.1442e-08
-1.1442e-08
6.43611e-07
-1.0156e-08
6.00924e-07
-1.10425e-08
1.0156e-08
5.53636e-07
-9.94004e-09
-9.94003e-09
8.95666e-09
6.00924e-07
-1.10425e-08
6.65256e-09
6.36267e-07
-1.19827e-08
3.52868e-09
6.59898e-07
-1.25267e-08
1.32033e-15
6.71761e-07
-1.28192e-08
-3.52868e-09
6.71761e-07
-1.28192e-08
-6.65255e-09
6.59898e-07
-1.25267e-08
-8.95666e-09
6.36267e-07
-1.19827e-08
-1.0156e-08
6.00924e-07
-1.10425e-08
5.53636e-07
-9.94003e-09
-9.94003e-09
3.3668e-09
3.36681e-09
5.53265e-07
-3.18138e-09
-3.18138e-09
3.049e-09
3.94695e-09
6.0094e-07
-3.64511e-09
2.30456e-09
4.39436e-09
6.36655e-07
-4.03818e-09
1.23498e-09
4.67718e-09
6.60578e-07
-4.28686e-09
-1.91029e-15
4.82124e-09
6.72596e-07
-4.42133e-09
-1.23499e-09
4.82124e-09
6.72596e-07
-4.42133e-09
-2.30457e-09
4.67718e-09
6.60578e-07
-4.28686e-09
-3.04901e-09
4.39436e-09
6.36655e-07
-4.03818e-09
-3.3668e-09
3.94694e-09
6.0094e-07
-3.6451e-09
3.36679e-09
5.53265e-07
-3.18137e-09
-3.18137e-09
3.94695e-09
3.04901e-09
6.0094e-07
-3.64511e-09
3.63138e-09
3.63138e-09
6.44242e-07
2.77e-09
4.06095e-09
6.7691e-07
1.49421e-09
4.33221e-09
6.98881e-07
1.06283e-15
4.46757e-09
7.09935e-07
-1.49421e-09
4.46757e-09
7.09935e-07
-2.77e-09
4.33221e-09
6.98881e-07
-3.63138e-09
4.06095e-09
6.7691e-07
-3.94695e-09
3.63137e-09
6.44242e-07
3.04899e-09
6.0094e-07
-3.64511e-09
4.39437e-09
2.30456e-09
6.36655e-07
-4.03819e-09
4.06095e-09
2.77001e-09
6.7691e-07
3.10476e-09
3.10476e-09
7.07413e-07
1.67729e-09
3.31583e-09
7.27958e-07
2.83532e-15
3.41981e-09
7.38298e-07
-1.67728e-09
3.41981e-09
7.38298e-07
-3.10476e-09
3.31583e-09
7.27958e-07
-4.06094e-09
3.10476e-09
7.07413e-07
-4.39436e-09
2.77e-09
6.7691e-07
2.30455e-09
6.36655e-07
-4.03819e-09
4.67718e-09
1.23498e-09
6.60578e-07
-4.28686e-09
4.33221e-09
1.49421e-09
6.98881e-07
3.31583e-09
1.67729e-09
7.27958e-07
1.79266e-09
1.79266e-09
7.4755e-07
3.27843e-15
1.84912e-09
7.5741e-07
-1.79265e-09
1.84911e-09
7.5741e-07
-3.31582e-09
1.79266e-09
7.4755e-07
-4.3322e-09
1.67729e-09
7.27958e-07
-4.67717e-09
1.49421e-09
6.98881e-07
1.23498e-09
6.60578e-07
-4.28686e-09
4.82124e-09
-1.5162e-15
6.72596e-07
-4.42133e-09
4.46757e-09
3.51176e-15
7.09935e-07
3.4198e-09
4.72003e-15
7.38298e-07
1.84911e-09
4.51056e-15
7.5741e-07
2.42341e-15
3.50404e-15
7.67028e-07
-1.84911e-09
1.73709e-15
7.67028e-07
-3.4198e-09
2.32469e-16
7.5741e-07
-4.46756e-09
-4.29536e-16
7.38298e-07
-4.82124e-09
-9.39897e-16
7.09935e-07
9.51477e-16
6.72596e-07
-4.42133e-09
4.82124e-09
-1.23499e-09
6.72596e-07
-4.42133e-09
4.46757e-09
-1.4942e-09
7.09935e-07
3.4198e-09
-1.67728e-09
7.38298e-07
1.84911e-09
-1.79265e-09
7.5741e-07
6.23453e-16
-1.84911e-09
7.67028e-07
-1.84911e-09
-1.84911e-09
7.67028e-07
-3.4198e-09
-1.79266e-09
7.5741e-07
-4.46756e-09
-1.67729e-09
7.38298e-07
-4.82124e-09
-1.49421e-09
7.09935e-07
-1.23498e-09
6.72596e-07
-4.42134e-09
4.67717e-09
-2.30456e-09
6.60578e-07
-4.28686e-09
4.3322e-09
-2.77e-09
6.98881e-07
3.31582e-09
-3.10475e-09
7.27958e-07
1.79266e-09
-3.31582e-09
7.4755e-07
-1.05499e-15
-3.4198e-09
7.5741e-07
-1.79266e-09
-3.4198e-09
7.5741e-07
-3.31583e-09
-3.31583e-09
7.4755e-07
-4.3322e-09
-3.10476e-09
7.27958e-07
-4.67717e-09
-2.77e-09
6.98881e-07
-2.30455e-09
6.60578e-07
-4.28686e-09
4.39435e-09
-3.049e-09
6.36655e-07
-4.03818e-09
4.06094e-09
-3.63137e-09
6.7691e-07
3.10476e-09
-4.06094e-09
7.07413e-07
1.67728e-09
-4.3322e-09
7.27958e-07
-1.49543e-15
-4.46756e-09
7.38298e-07
-1.67729e-09
-4.46756e-09
7.38298e-07
-3.10476e-09
-4.3322e-09
7.27958e-07
-4.06095e-09
-4.06095e-09
7.07413e-07
-4.39436e-09
-3.63138e-09
6.7691e-07
-3.049e-09
6.36655e-07
-4.03818e-09
3.94695e-09
-3.3668e-09
6.0094e-07
-3.64511e-09
3.63137e-09
-3.94694e-09
6.44242e-07
2.77e-09
-4.39435e-09
6.7691e-07
1.49421e-09
-4.67717e-09
6.98881e-07
-1.09059e-15
-4.82124e-09
7.09935e-07
-1.49421e-09
-4.82124e-09
7.09935e-07
-2.77e-09
-4.67717e-09
6.98881e-07
-3.63138e-09
-4.39436e-09
6.7691e-07
-3.94695e-09
-3.94695e-09
6.44242e-07
-3.3668e-09
6.0094e-07
-3.6451e-09
3.3668e-09
5.53265e-07
-3.18137e-09
-3.18137e-09
3.049e-09
6.0094e-07
-3.6451e-09
2.30456e-09
6.36655e-07
-4.03818e-09
1.23498e-09
6.60578e-07
-4.28686e-09
2.52528e-15
6.72596e-07
-4.42133e-09
-1.23498e-09
6.72596e-07
-4.42134e-09
-2.30455e-09
6.60578e-07
-4.28686e-09
-3.04899e-09
6.36655e-07
-4.03818e-09
-3.3668e-09
6.0094e-07
-3.6451e-09
5.53265e-07
-3.18137e-09
-3.18137e-09
1.17675e-09
1.17675e-09
5.5308e-07
-1.08397e-09
-1.08397e-09
1.08261e-09
1.40456e-09
6.0089e-07
-1.25996e-09
8.26686e-10
1.58275e-09
6.36739e-07
-1.41024e-09
4.45661e-10
1.69918e-09
6.60767e-07
-1.50785e-09
-1.61099e-15
1.75883e-09
6.72843e-07
-1.56017e-09
-4.45663e-10
1.75883e-09
6.72843e-07
-1.56017e-09
-8.26687e-10
1.69917e-09
6.60767e-07
-1.50785e-09
-1.08261e-09
1.58275e-09
6.36739e-07
-1.41024e-09
-1.17675e-09
1.40457e-09
6.0089e-07
-1.25996e-09
1.17675e-09
5.5308e-07
-1.08397e-09
-1.08397e-09
1.40456e-09
1.08261e-09
6.0089e-07
-1.25996e-09
1.31663e-09
1.31664e-09
6.44418e-07
1.01653e-09
1.49408e-09
6.77298e-07
5.52279e-10
1.6102e-09
6.99434e-07
-1.44357e-16
1.66908e-09
7.10577e-07
-5.5228e-10
1.66908e-09
7.10577e-07
-1.01654e-09
1.6102e-09
6.99434e-07
-1.31664e-09
1.49408e-09
6.77298e-07
-1.40457e-09
1.31664e-09
6.44418e-07
1.08261e-09
6.0089e-07
-1.25996e-09
1.58275e-09
8.26686e-10
6.36739e-07
-1.41024e-09
1.49408e-09
1.01654e-09
6.77298e-07
1.15871e-09
1.15871e-09
7.08084e-07
6.3125e-10
1.25196e-09
7.28844e-07
2.69117e-15
1.29889e-09
7.39299e-07
-6.31244e-10
1.29889e-09
7.39299e-07
-1.1587e-09
1.25195e-09
7.28844e-07
-1.49408e-09
1.1587e-09
7.08084e-07
-1.58275e-09
1.01654e-09
6.77298e-07
8.26686e-10
6.36739e-07
-1.41024e-09
1.69918e-09
4.45658e-10
6.60767e-07
-1.50785e-09
1.6102e-09
5.52281e-10
6.99434e-07
1.25196e-09
6.3125e-10
7.28844e-07
6.83191e-10
6.83191e-10
7.48688e-07
3.44624e-15
7.09241e-10
7.58683e-07
-6.83185e-10
7.0924e-10
7.58683e-07
-1.25195e-09
6.83188e-10
7.48688e-07
-1.6102e-09
6.31247e-10
7.28844e-07
-1.69918e-09
5.52281e-10
6.99434e-07
4.45661e-10
6.60767e-07
-1.50785e-09
1.75883e-09
-2.77135e-15
6.72843e-07
-1.56017e-09
1.66908e-09
8.34515e-16
7.10577e-07
1.29889e-09
2.36116e-15
7.39299e-07
7.09241e-10
3.35949e-15
7.58683e-07
3.03716e-15
3.1014e-15
7.68447e-07
-7.09236e-10
2.22914e-15
7.68447e-07
-1.29889e-09
1.35123e-15
7.58683e-07
-1.66908e-09
1.44813e-15
7.39299e-07
-1.75883e-09
1.08391e-15
7.10577e-07
-1.34511e-16
6.72843e-07
-1.56017e-09
1.75883e-09
-4.45665e-10
6.72843e-07
-1.56017e-09
1.66908e-09
-5.52279e-10
7.10577e-07
1.29889e-09
-6.31247e-10
7.39299e-07
7.0924e-10
-6.83185e-10
7.58683e-07
2.3402e-15
-7.09235e-10
7.68447e-07
-7.09235e-10
-7.09236e-10
7.68447e-07
-1.29888e-09
-6.83185e-10
7.58683e-07
-1.66907e-09
-6.31245e-10
7.39299e-07
-1.75883e-09
-5.52279e-10
7.10577e-07
-4.4566e-10
6.72843e-07
-1.56017e-09
1.69917e-09
-8.26691e-10
6.60767e-07
-1.50785e-09
1.6102e-09
-1.01654e-09
6.99434e-07
1.25195e-09
-1.15871e-09
7.28844e-07
6.83188e-10
-1.25195e-09
7.48688e-07
1.20939e-15
-1.29888e-09
7.58683e-07
-6.83186e-10
-1.29888e-09
7.58683e-07
-1.25195e-09
-1.25195e-09
7.48688e-07
-1.6102e-09
-1.1587e-09
7.28844e-07
-1.69917e-09
-1.01654e-09
6.99434e-07
-8.26685e-10
6.60767e-07
-1.50785e-09
1.58275e-09
-1.08261e-09
6.36739e-07
-1.41024e-09
1.49408e-09
-1.31664e-09
6.77298e-07
1.1587e-09
-1.49408e-09
7.08084e-07
6.31248e-10
-1.6102e-09
7.28844e-07
1.40618e-15
-1.66907e-09
7.39299e-07
-6.31246e-10
-1.66907e-09
7.39299e-07
-1.1587e-09
-1.61019e-09
7.28844e-07
-1.49408e-09
-1.49408e-09
7.08084e-07
-1.58275e-09
-1.31664e-09
6.77298e-07
-1.08261e-09
6.36739e-07
-1.41024e-09
1.40457e-09
-1.17675e-09
6.0089e-07
-1.25997e-09
1.31664e-09
-1.40457e-09
6.44418e-07
1.01654e-09
-1.58275e-09
6.77298e-07
5.52282e-10
-1.69917e-09
6.99434e-07
2.01721e-15
-1.75883e-09
7.10577e-07
-5.52276e-10
-1.75883e-09
7.10577e-07
-1.01653e-09
-1.69917e-09
6.99434e-07
-1.31663e-09
-1.58274e-09
6.77298e-07
-1.40456e-09
-1.40457e-09
6.44418e-07
-1.17675e-09
6.0089e-07
-1.25996e-09
1.17674e-09
5.5308e-07
-1.08396e-09
-1.08397e-09
1.0826e-09
6.0089e-07
-1.25997e-09
8.26683e-10
6.36739e-07
-1.41024e-09
4.4566e-10
6.60767e-07
-1.50785e-09
3.16775e-16
6.72843e-07
-1.56017e-09
-4.45658e-10
6.72843e-07
-1.56017e-09
-8.26679e-10
6.60767e-07
-1.50785e-09
-1.0826e-09
6.36739e-07
-1.41024e-09
-1.17674e-09
6.0089e-07
-1.25996e-09
5.5308e-07
-1.08397e-09
-1.08397e-09
4.0662e-10
4.06626e-10
5.53002e-07
-3.67961e-10
-3.67961e-10
3.80059e-10
4.95974e-10
6.00856e-07
-4.35599e-10
2.93334e-10
5.6687e-10
6.36752e-07
-4.92956e-10
1.59178e-10
6.14216e-10
6.60819e-07
-5.31179e-10
-2.17105e-15
6.38587e-10
6.72916e-07
-5.51549e-10
-1.59184e-10
6.38588e-10
6.72916e-07
-5.51549e-10
-2.93341e-10
6.14215e-10
6.60819e-07
-5.31177e-10
-3.80061e-10
5.66856e-10
6.36752e-07
-4.9295e-10
-4.06613e-10
4.95957e-10
6.00856e-07
-4.35593e-10
4.06614e-10
5.53002e-07
-3.67953e-10
-3.67954e-10
4.95974e-10
3.80066e-10
6.00856e-07
-4.35599e-10
4.72813e-10
4.7281e-10
6.44464e-07
3.69286e-10
5.44902e-10
6.77424e-07
2.02013e-10
5.93184e-10
6.99623e-07
2.62628e-15
6.17873e-10
7.10799e-07
-2.02007e-10
6.17873e-10
7.10799e-07
-3.69277e-10
5.93181e-10
6.99623e-07
-4.72805e-10
5.44894e-10
6.77424e-07
-4.95969e-10
4.728e-10
6.44464e-07
3.80053e-10
6.00856e-07
-4.35595e-10
5.6688e-10
2.93334e-10
6.36752e-07
-4.92958e-10
5.44909e-10
3.69287e-10
6.77424e-07
4.27852e-10
4.27849e-10
7.08318e-07
2.34785e-10
4.67192e-10
7.29163e-07
4.02123e-15
4.8721e-10
7.39665e-07
-2.34776e-10
4.87209e-10
7.39665e-07
-4.27842e-10
4.67188e-10
7.29163e-07
-5.44898e-10
4.27842e-10
7.08318e-07
-5.66864e-10
3.69277e-10
6.77424e-07
2.93329e-10
6.36752e-07
-4.92953e-10
6.14222e-10
1.59174e-10
6.60819e-07
-5.31181e-10
5.93188e-10
2.02014e-10
6.99623e-07
4.67194e-10
2.34784e-10
7.29163e-07
2.56872e-10
2.56872e-10
7.49108e-07
3.50825e-15
2.68086e-10
7.59159e-07
-2.56865e-10
2.68085e-10
7.59159e-07
-4.67187e-10
2.56868e-10
7.49108e-07
-5.93181e-10
2.34778e-10
7.29163e-07
-6.14215e-10
2.02007e-10
6.99623e-07
1.59175e-10
6.60819e-07
-5.3118e-10
6.38587e-10
-3.5728e-15
6.72916e-07
-5.51551e-10
6.17873e-10
3.57595e-15
7.10799e-07
4.87209e-10
4.42912e-15
7.39665e-07
2.68085e-10
4.28505e-15
7.59159e-07
2.65754e-15
3.44227e-15
7.68983e-07
-2.6808e-10
2.02979e-15
7.68983e-07
-4.87204e-10
3.93639e-16
7.59159e-07
-6.17868e-10
-4.53737e-16
7.39665e-07
-6.38583e-10
-1.60911e-15
7.10799e-07
1.36911e-15
6.72916e-07
-5.51552e-10
6.38586e-10
-1.59184e-10
6.72916e-07
-5.51549e-10
6.17872e-10
-2.02007e-10
7.10799e-07
4.87207e-10
-2.34774e-10
7.39665e-07
2.68083e-10
-2.56863e-10
7.59159e-07
1.1149e-15
-2.68079e-10
7.68983e-07
-2.68081e-10
-2.6808e-10
7.68983e-07
-4.87205e-10
-2.56868e-10
7.59159e-07
-6.1787e-10
-2.3478e-10
7.39665e-07
-6.38584e-10
-2.02011e-10
7.10799e-07
-1.59172e-10
6.72916e-07
-5.51553e-10
6.14215e-10
-2.93341e-10
6.60819e-07
-5.31177e-10
5.93183e-10
-3.69278e-10
6.99623e-07
4.67189e-10
-4.27838e-10
7.29163e-07
2.56869e-10
-4.67184e-10
7.49108e-07
-1.29518e-16
-4.87203e-10
7.59159e-07
-2.56869e-10
-4.87205e-10
7.59159e-07
-4.67189e-10
-4.67189e-10
7.49108e-07
-5.93182e-10
-4.27847e-10
7.29163e-07
-6.14215e-10
-3.69282e-10
6.99623e-07
-2.93325e-10
6.60819e-07
-5.31179e-10
5.6686e-10
-3.80062e-10
6.36752e-07
-4.92951e-10
5.44898e-10
-4.72806e-10
6.77424e-07
4.27845e-10
-5.44893e-10
7.08318e-07
2.3478e-10
-5.93178e-10
7.29163e-07
-2.8633e-16
-6.17867e-10
7.39665e-07
-2.34779e-10
-6.1787e-10
7.39665e-07
-4.27845e-10
-5.93184e-10
7.29163e-07
-5.44899e-10
-5.44902e-10
7.08318e-07
-5.66867e-10
-4.72806e-10
6.77424e-07
-3.80052e-10
6.36752e-07
-4.92952e-10
4.95962e-10
-4.06617e-10
6.00856e-07
-4.35594e-10
4.728e-10
-4.95965e-10
6.44464e-07
3.69273e-10
-5.66859e-10
6.77424e-07
2.02005e-10
-6.14213e-10
6.99623e-07
-2.51565e-15
-6.38583e-10
7.10799e-07
-2.02011e-10
-6.38585e-10
7.10799e-07
-3.69282e-10
-6.14218e-10
6.99623e-07
-4.72807e-10
-5.66872e-10
6.77424e-07
-4.9597e-10
-4.95967e-10
6.44464e-07
-4.06613e-10
6.00856e-07
-4.35595e-10
4.06614e-10
5.53002e-07
-3.67955e-10
-3.67955e-10
3.8005e-10
6.00856e-07
-4.35592e-10
2.93326e-10
6.36752e-07
-4.9295e-10
1.59174e-10
6.60819e-07
-5.3118e-10
9.63805e-16
6.72916e-07
-5.51553e-10
-1.59174e-10
6.72916e-07
-5.51552e-10
-2.93331e-10
6.60819e-07
-5.31181e-10
-3.8006e-10
6.36752e-07
-4.92954e-10
-4.0662e-10
6.00856e-07
-4.35593e-10
5.53002e-07
-3.67956e-10
-3.67954e-10
1.40795e-10
1.40788e-10
5.52974e-07
-1.26362e-10
-1.26363e-10
1.32748e-10
1.74044e-10
6.00841e-07
-1.51087e-10
1.03051e-10
2.00838e-10
6.36752e-07
-1.7199e-10
5.61329e-11
2.19085e-10
6.60833e-07
-1.86237e-10
-1.57598e-15
2.28548e-10
6.72937e-07
-1.93833e-10
-5.61355e-11
2.28545e-10
6.72937e-07
-1.93831e-10
-1.03052e-10
2.19082e-10
6.60833e-07
-1.86235e-10
-1.32748e-10
2.00842e-10
6.36752e-07
-1.71991e-10
-1.40796e-10
1.74048e-10
6.00841e-07
-1.51088e-10
1.40795e-10
5.52974e-07
-1.26366e-10
-1.26365e-10
1.74043e-10
1.3274e-10
6.00841e-07
-1.51086e-10
1.67703e-10
1.67702e-10
6.44477e-07
1.32006e-10
1.95537e-10
6.77465e-07
7.25583e-11
2.14578e-10
6.99686e-07
-4.03535e-16
2.24409e-10
7.10876e-07
-7.2559e-11
2.24407e-10
7.10876e-07
-1.32008e-10
2.14575e-10
6.99686e-07
-1.67706e-10
1.95538e-10
6.77465e-07
-1.74052e-10
1.67706e-10
6.44477e-07
1.32744e-10
6.00841e-07
-1.51089e-10
2.00832e-10
1.03045e-10
6.36752e-07
-1.71987e-10
1.95532e-10
1.32006e-10
6.77465e-07
1.54945e-10
1.54949e-10
7.08399e-07
8.55008e-11
1.70707e-10
7.29277e-07
8.04375e-16
1.78815e-10
7.39796e-07
-8.54999e-11
1.78814e-10
7.39796e-07
-1.54947e-10
1.70706e-10
7.29277e-07
-1.95536e-10
1.5495e-10
7.08399e-07
-2.0084e-10
1.32008e-10
6.77465e-07
1.03045e-10
6.36752e-07
-1.71989e-10
2.19077e-10
5.61317e-11
6.60833e-07
-1.86236e-10
2.14572e-10
7.25579e-11
6.99686e-07
1.70704e-10
8.55023e-11
7.29277e-07
9.44255e-11
9.44262e-11
7.49261e-07
1.52098e-15
9.90114e-11
7.59333e-07
-9.44232e-11
9.90108e-11
7.59333e-07
-1.70704e-10
9.44263e-11
7.49261e-07
-2.14573e-10
8.55028e-11
7.29277e-07