/*--------------------------------*- C++ -*----------------------------------*\
| =========                 |                                                 |
| \\      /  F ield         | OpenFOAM: The Open Source CFD Toolbox           |
|  \\    /   O peration     | Version:  2412                                  |
|   \\  /    A nd           | Website:  www.openfoam.com                      |
|    \\/     M anipulation  |                                                 |
\*---------------------------------------------------------------------------*/
FoamFile
{
    version     2.0;
    format      ascii;
    arch        "LSB;label=32;scalar=64";
    class       volVectorField;
    location    "2";
    object      U;
}
// * * * * * * * * * * * * * * * * * * * * * * * * * * * * * * * * * * * * * //

dimensions      [0 1 -1 0 0 0 0];

internalField   nonuniform List<vector> 
15000
(
(0.00094271 0.00094271 0.0106304)
(0.000685293 0.000863286 0.0105713)
(0.000464416 0.00084428 0.0105209)
(0.000272574 0.000823004 0.0104857)
(8.93045e-05 0.000813852 0.0104682)
(-8.93045e-05 0.000813852 0.0104682)
(-0.000272574 0.000823004 0.0104857)
(-0.000464416 0.00084428 0.0105209)
(-0.000685293 0.000863286 0.0105713)
(-0.00094271 0.00094271 0.0106304)
(0.000863286 0.000685293 0.0105713)
(0.000641254 0.000641254 0.0104955)
(0.00044055 0.000615332 0.0104366)
(0.000257814 0.00059738 0.0103981)
(8.46602e-05 0.00058907 0.0103793)
(-8.46603e-05 0.00058907 0.0103793)
(-0.000257814 0.00059738 0.0103981)
(-0.00044055 0.000615332 0.0104366)
(-0.000641254 0.000641254 0.0104955)
(-0.000863286 0.000685293 0.0105713)
(0.00084428 0.000464416 0.0105209)
(0.000615332 0.00044055 0.0104366)
(0.00042054 0.00042054 0.0103754)
(0.000244879 0.000406104 0.0103366)
(8.03097e-05 0.000398995 0.0103179)
(-8.03097e-05 0.000398995 0.0103179)
(-0.000244879 0.000406104 0.0103366)
(-0.00042054 0.00042054 0.0103754)
(-0.000615332 0.00044055 0.0104366)
(-0.00084428 0.000464416 0.0105209)
(0.000823004 0.000272574 0.0104857)
(0.00059738 0.000257814 0.0103981)
(0.000406104 0.000244879 0.0103366)
(0.000235546 0.000235546 0.0102983)
(7.71433e-05 0.000230891 0.01028)
(-7.71433e-05 0.000230891 0.01028)
(-0.000235546 0.000235546 0.0102983)
(-0.000406104 0.000244879 0.0103366)
(-0.00059738 0.000257814 0.0103981)
(-0.000823004 0.000272574 0.0104857)
(0.000813852 8.93045e-05 0.0104682)
(0.00058907 8.46602e-05 0.0103793)
(0.000398995 8.03097e-05 0.0103179)
(0.000230891 7.71433e-05 0.01028)
(7.55542e-05 7.55542e-05 0.0102619)
(-7.55542e-05 7.55542e-05 0.0102619)
(-0.000230891 7.71433e-05 0.01028)
(-0.000398995 8.03097e-05 0.0103179)
(-0.00058907 8.46603e-05 0.0103793)
(-0.000813852 8.93045e-05 0.0104682)
(0.000813852 -8.93045e-05 0.0104682)
(0.00058907 -8.46603e-05 0.0103793)
(0.000398995 -8.03097e-05 0.0103179)
(0.000230891 -7.71433e-05 0.01028)
(7.55542e-05 -7.55542e-05 0.0102619)
(-7.55542e-05 -7.55542e-05 0.0102619)
(-0.000230891 -7.71433e-05 0.01028)
(-0.000398995 -8.03097e-05 0.0103179)
(-0.00058907 -8.46602e-05 0.0103793)
(-0.000813852 -8.93045e-05 0.0104682)
(0.000823004 -0.000272574 0.0104857)
(0.00059738 -0.000257814 0.0103981)
(0.000406104 -0.000244879 0.0103366)
(0.000235546 -0.000235546 0.0102983)
(7.71433e-05 -0.000230891 0.01028)
(-7.71433e-05 -0.000230891 0.01028)
(-0.000235546 -0.000235546 0.0102983)
(-0.000406104 -0.000244879 0.0103366)
(-0.00059738 -0.000257814 0.0103981)
(-0.000823004 -0.000272574 0.0104857)
(0.00084428 -0.000464416 0.0105209)
(0.000615332 -0.00044055 0.0104366)
(0.00042054 -0.00042054 0.0103754)
(0.000244879 -0.000406104 0.0103366)
(8.03097e-05 -0.000398995 0.0103179)
(-8.03097e-05 -0.000398995 0.0103179)
(-0.000244879 -0.000406104 0.0103366)
(-0.00042054 -0.00042054 0.0103754)
(-0.000615332 -0.00044055 0.0104366)
(-0.00084428 -0.000464417 0.0105209)
(0.000863286 -0.000685293 0.0105713)
(0.000641254 -0.000641254 0.0104955)
(0.00044055 -0.000615332 0.0104366)
(0.000257814 -0.00059738 0.0103981)
(8.46603e-05 -0.00058907 0.0103793)
(-8.46602e-05 -0.00058907 0.0103793)
(-0.000257814 -0.00059738 0.0103981)
(-0.00044055 -0.000615333 0.0104366)
(-0.000641254 -0.000641254 0.0104955)
(-0.000863286 -0.000685293 0.0105713)
(0.00094271 -0.00094271 0.0106304)
(0.000685293 -0.000863286 0.0105713)
(0.000464416 -0.00084428 0.0105209)
(0.000272574 -0.000823004 0.0104857)
(8.93045e-05 -0.000813852 0.0104682)
(-8.93045e-05 -0.000813852 0.0104682)
(-0.000272574 -0.000823004 0.0104857)
(-0.000464417 -0.00084428 0.0105209)
(-0.000685293 -0.000863286 0.0105713)
(-0.00094271 -0.00094271 0.0106304)
(0.000353739 0.000353739 0.0118771)
(0.000284394 0.000374417 0.0117533)
(0.000206367 0.000397977 0.0116511)
(0.000126303 0.000410941 0.0115805)
(4.21487e-05 0.00041845 0.0115454)
(-4.21486e-05 0.00041845 0.0115454)
(-0.000126303 0.000410941 0.0115805)
(-0.000206366 0.000397977 0.0116511)
(-0.000284394 0.000374417 0.0117533)
(-0.000353739 0.000353739 0.0118771)
(0.000374417 0.000284394 0.0117533)
(0.000305756 0.000305756 0.0115968)
(0.000225532 0.000323705 0.0114763)
(0.000138423 0.000334983 0.011397)
(4.6534e-05 0.000341061 0.011358)
(-4.6534e-05 0.000341061 0.011358)
(-0.000138423 0.000334983 0.011397)
(-0.000225532 0.000323705 0.0114763)
(-0.000305756 0.000305756 0.0115968)
(-0.000374417 0.000284394 0.0117533)
(0.000397977 0.000206367 0.0116511)
(0.000323705 0.000225532 0.0114763)
(0.000239442 0.000239442 0.0113483)
(0.000146935 0.000248037 0.0112657)
(4.94793e-05 0.000252401 0.0112255)
(-4.94792e-05 0.000252401 0.0112255)
(-0.000146935 0.000248037 0.0112657)
(-0.000239442 0.000239442 0.0113483)
(-0.000323705 0.000225532 0.0114763)
(-0.000397977 0.000206366 0.0116511)
(0.000410941 0.000126303 0.0115805)
(0.000334983 0.000138423 0.011397)
(0.000248037 0.000146935 0.0112657)
(0.000152222 0.000152222 0.0111821)
(5.1289e-05 0.000154854 0.0111415)
(-5.12889e-05 0.000154854 0.0111415)
(-0.000152222 0.000152222 0.0111821)
(-0.000248037 0.000146935 0.0112657)
(-0.000334983 0.000138423 0.011397)
(-0.000410941 0.000126303 0.0115805)
(0.00041845 4.21486e-05 0.0115454)
(0.000341061 4.6534e-05 0.011358)
(0.000252401 4.94793e-05 0.0112255)
(0.000154854 5.1289e-05 0.0111415)
(5.21751e-05 5.21751e-05 0.0111009)
(-5.21751e-05 5.21751e-05 0.0111009)
(-0.000154854 5.1289e-05 0.0111415)
(-0.000252401 4.94793e-05 0.0112255)
(-0.000341061 4.65341e-05 0.011358)
(-0.00041845 4.21487e-05 0.0115454)
(0.00041845 -4.21486e-05 0.0115454)
(0.000341061 -4.65341e-05 0.011358)
(0.000252401 -4.94792e-05 0.0112255)
(0.000154854 -5.12889e-05 0.0111415)
(5.21751e-05 -5.21751e-05 0.0111009)
(-5.21751e-05 -5.21751e-05 0.0111009)
(-0.000154854 -5.1289e-05 0.0111415)
(-0.000252401 -4.94793e-05 0.0112255)
(-0.000341061 -4.6534e-05 0.011358)
(-0.00041845 -4.21486e-05 0.0115454)
(0.000410941 -0.000126303 0.0115805)
(0.000334983 -0.000138423 0.011397)
(0.000248037 -0.000146935 0.0112657)
(0.000152222 -0.000152222 0.0111821)
(5.1289e-05 -0.000154854 0.0111415)
(-5.1289e-05 -0.000154854 0.0111415)
(-0.000152222 -0.000152222 0.0111821)
(-0.000248037 -0.000146935 0.0112657)
(-0.000334983 -0.000138423 0.011397)
(-0.000410941 -0.000126304 0.0115805)
(0.000397977 -0.000206366 0.0116511)
(0.000323705 -0.000225532 0.0114763)
(0.000239442 -0.000239442 0.0113483)
(0.000146935 -0.000248037 0.0112657)
(4.94793e-05 -0.000252401 0.0112255)
(-4.94793e-05 -0.000252401 0.0112255)
(-0.000146935 -0.000248037 0.0112657)
(-0.000239442 -0.000239442 0.0113483)
(-0.000323705 -0.000225532 0.0114763)
(-0.000397977 -0.000206367 0.0116511)
(0.000374417 -0.000284394 0.0117533)
(0.000305756 -0.000305756 0.0115968)
(0.000225532 -0.000323705 0.0114763)
(0.000138423 -0.000334983 0.011397)
(4.65341e-05 -0.000341061 0.011358)
(-4.6534e-05 -0.000341061 0.011358)
(-0.000138423 -0.000334983 0.011397)
(-0.000225532 -0.000323705 0.0114763)
(-0.000305757 -0.000305757 0.0115968)
(-0.000374417 -0.000284394 0.0117533)
(0.000353739 -0.000353739 0.0118771)
(0.000284394 -0.000374417 0.0117533)
(0.000206366 -0.000397977 0.0116511)
(0.000126303 -0.000410941 0.0115805)
(4.21487e-05 -0.00041845 0.0115454)
(-4.21486e-05 -0.00041845 0.0115454)
(-0.000126304 -0.000410941 0.0115805)
(-0.000206367 -0.000397977 0.0116511)
(-0.000284394 -0.000374417 0.0117533)
(-0.000353739 -0.000353739 0.0118771)
(0.000180824 0.000180824 0.0117508)
(0.000150601 0.000197137 0.0117326)
(0.00011343 0.000212861 0.0117034)
(7.06718e-05 0.000222163 0.0116798)
(2.38085e-05 0.000227185 0.0116676)
(-2.38085e-05 0.000227185 0.0116676)
(-7.06717e-05 0.000222163 0.0116798)
(-0.00011343 0.000212861 0.0117034)
(-0.000150601 0.000197137 0.0117326)
(-0.000180824 0.000180824 0.0117508)
(0.000197137 0.000150601 0.0117326)
(0.00016821 0.00016821 0.0116832)
(0.000127801 0.000181236 0.0116381)
(7.96672e-05 0.000189306 0.0116065)
(2.69743e-05 0.000193454 0.0115905)
(-2.69743e-05 0.000193454 0.0115905)
(-7.96672e-05 0.000189306 0.0116065)
(-0.000127801 0.000181236 0.0116381)
(-0.00016821 0.00016821 0.0116832)
(-0.000197137 0.000150601 0.0117326)
(0.000212861 0.00011343 0.0117034)
(0.000181236 0.000127801 0.0116381)
(0.000137626 0.000137626 0.0115849)
(8.56402e-05 0.000143578 0.0115487)
(2.90115e-05 0.000146517 0.0115305)
(-2.90114e-05 0.000146517 0.0115305)
(-8.56402e-05 0.000143578 0.0115487)
(-0.000137626 0.000137626 0.0115849)
(-0.000181236 0.000127801 0.0116381)
(-0.000212861 0.00011343 0.0117034)
(0.000222163 7.06717e-05 0.0116798)
(0.000189306 7.96672e-05 0.0116065)
(0.000143578 8.56403e-05 0.0115487)
(8.92385e-05 8.92385e-05 0.0115098)
(3.02322e-05 9.10012e-05 0.0114903)
(-3.02322e-05 9.10012e-05 0.0114903)
(-8.92385e-05 8.92385e-05 0.0115098)
(-0.000143578 8.56403e-05 0.0115487)
(-0.000189306 7.96672e-05 0.0116065)
(-0.000222163 7.06717e-05 0.0116798)
(0.000227185 2.38085e-05 0.0116676)
(0.000193454 2.69743e-05 0.0115905)
(0.000146517 2.90115e-05 0.0115305)
(9.10012e-05 3.02322e-05 0.0114903)
(3.08285e-05 3.08285e-05 0.0114701)
(-3.08284e-05 3.08285e-05 0.0114701)
(-9.10012e-05 3.02322e-05 0.0114903)
(-0.000146517 2.90115e-05 0.0115305)
(-0.000193454 2.69743e-05 0.0115905)
(-0.000227185 2.38085e-05 0.0116676)
(0.000227185 -2.38085e-05 0.0116676)
(0.000193454 -2.69743e-05 0.0115905)
(0.000146517 -2.90114e-05 0.0115305)
(9.10012e-05 -3.02322e-05 0.0114903)
(3.08284e-05 -3.08284e-05 0.0114701)
(-3.08284e-05 -3.08284e-05 0.0114701)
(-9.10011e-05 -3.02322e-05 0.0114903)
(-0.000146517 -2.90115e-05 0.0115305)
(-0.000193454 -2.69743e-05 0.0115905)
(-0.000227185 -2.38085e-05 0.0116676)
(0.000222163 -7.06717e-05 0.0116798)
(0.000189306 -7.96672e-05 0.0116065)
(0.000143578 -8.56402e-05 0.0115487)
(8.92385e-05 -8.92385e-05 0.0115098)
(3.02322e-05 -9.10012e-05 0.0114903)
(-3.02322e-05 -9.10011e-05 0.0114903)
(-8.92385e-05 -8.92385e-05 0.0115098)
(-0.000143578 -8.56402e-05 0.0115487)
(-0.000189306 -7.96672e-05 0.0116065)
(-0.000222163 -7.06718e-05 0.0116798)
(0.000212861 -0.00011343 0.0117034)
(0.000181237 -0.000127801 0.0116381)
(0.000137626 -0.000137626 0.0115849)
(8.56402e-05 -0.000143578 0.0115487)
(2.90115e-05 -0.000146517 0.0115305)
(-2.90115e-05 -0.000146517 0.0115305)
(-8.56402e-05 -0.000143578 0.0115487)
(-0.000137626 -0.000137626 0.0115849)
(-0.000181237 -0.000127801 0.0116381)
(-0.000212861 -0.00011343 0.0117034)
(0.000197137 -0.000150601 0.0117326)
(0.00016821 -0.00016821 0.0116832)
(0.000127801 -0.000181237 0.0116381)
(7.96672e-05 -0.000189306 0.0116065)
(2.69743e-05 -0.000193454 0.0115905)
(-2.69743e-05 -0.000193454 0.0115905)
(-7.96672e-05 -0.000189306 0.0116065)
(-0.000127801 -0.000181237 0.0116381)
(-0.00016821 -0.00016821 0.0116832)
(-0.000197137 -0.000150601 0.0117326)
(0.000180824 -0.000180824 0.0117508)
(0.000150601 -0.000197137 0.0117326)
(0.00011343 -0.000212861 0.0117034)
(7.06718e-05 -0.000222163 0.0116798)
(2.38085e-05 -0.000227185 0.0116676)
(-2.38085e-05 -0.000227185 0.0116676)
(-7.06718e-05 -0.000222163 0.0116798)
(-0.00011343 -0.000212861 0.0117034)
(-0.000150601 -0.000197137 0.0117326)
(-0.000180824 -0.000180824 0.0117508)
(6.10111e-05 6.10112e-05 0.0117847)
(5.37998e-05 7.23808e-05 0.0117941)
(4.26638e-05 8.22479e-05 0.0117854)
(2.73445e-05 8.85979e-05 0.0117755)
(9.33761e-06 9.19563e-05 0.0117699)
(-9.33759e-06 9.19563e-05 0.0117699)
(-2.73444e-05 8.8598e-05 0.0117755)
(-4.26638e-05 8.2248e-05 0.0117854)
(-5.37998e-05 7.23808e-05 0.0117941)
(-6.10112e-05 6.10111e-05 0.0117847)
(7.23808e-05 5.37998e-05 0.0117941)
(6.56661e-05 6.56661e-05 0.0117777)
(5.22867e-05 7.47579e-05 0.0117568)
(3.35354e-05 8.07358e-05 0.0117411)
(1.15131e-05 8.38149e-05 0.011733)
(-1.1513e-05 8.38149e-05 0.011733)
(-3.35354e-05 8.07358e-05 0.0117411)
(-5.22867e-05 7.47579e-05 0.0117568)
(-6.5666e-05 6.5666e-05 0.0117777)
(-7.23807e-05 5.37998e-05 0.0117941)
(8.22479e-05 4.26638e-05 0.0117854)
(7.47579e-05 5.22867e-05 0.0117568)
(5.94685e-05 5.94685e-05 0.0117304)
(3.80715e-05 6.41393e-05 0.0117117)
(1.30758e-05 6.64911e-05 0.0117021)
(-1.30758e-05 6.64911e-05 0.0117021)
(-3.80715e-05 6.41393e-05 0.0117117)
(-5.94685e-05 5.94685e-05 0.0117304)
(-7.47579e-05 5.22867e-05 0.0117568)
(-8.22479e-05 4.26638e-05 0.0117854)
(8.85979e-05 2.73444e-05 0.0117755)
(8.07357e-05 3.35354e-05 0.0117411)
(6.41393e-05 3.80715e-05 0.0117117)
(4.10126e-05 4.10126e-05 0.0116912)
(1.40852e-05 4.24842e-05 0.0116808)
(-1.40852e-05 4.24842e-05 0.0116808)
(-4.10126e-05 4.10126e-05 0.0116912)
(-6.41393e-05 3.80715e-05 0.0117117)
(-8.07358e-05 3.35354e-05 0.0117411)
(-8.85979e-05 2.73444e-05 0.0117755)
(9.19563e-05 9.33759e-06 0.0117699)
(8.38149e-05 1.1513e-05 0.011733)
(6.6491e-05 1.30758e-05 0.0117021)
(4.24842e-05 1.40852e-05 0.0116808)
(1.45881e-05 1.45881e-05 0.0116699)
(-1.4588e-05 1.45881e-05 0.0116699)
(-4.24842e-05 1.40852e-05 0.0116808)
(-6.6491e-05 1.30758e-05 0.0117021)
(-8.38149e-05 1.15131e-05 0.011733)
(-9.19563e-05 9.33764e-06 0.0117699)
(9.19563e-05 -9.33759e-06 0.0117699)
(8.38149e-05 -1.1513e-05 0.011733)
(6.64911e-05 -1.30758e-05 0.0117021)
(4.24842e-05 -1.40852e-05 0.0116808)
(1.45881e-05 -1.4588e-05 0.0116699)
(-1.45881e-05 -1.45881e-05 0.0116699)
(-4.24842e-05 -1.40852e-05 0.0116808)
(-6.6491e-05 -1.30758e-05 0.0117021)
(-8.38149e-05 -1.1513e-05 0.011733)
(-9.19563e-05 -9.3376e-06 0.0117699)
(8.8598e-05 -2.73444e-05 0.0117755)
(8.07358e-05 -3.35354e-05 0.0117411)
(6.41393e-05 -3.80715e-05 0.0117117)
(4.10126e-05 -4.10126e-05 0.0116912)
(1.40852e-05 -4.24842e-05 0.0116808)
(-1.40852e-05 -4.24842e-05 0.0116808)
(-4.10126e-05 -4.10126e-05 0.0116912)
(-6.41393e-05 -3.80715e-05 0.0117117)
(-8.07357e-05 -3.35354e-05 0.0117411)
(-8.85979e-05 -2.73445e-05 0.0117755)
(8.22479e-05 -4.26638e-05 0.0117854)
(7.47579e-05 -5.22867e-05 0.0117568)
(5.94685e-05 -5.94685e-05 0.0117304)
(3.80715e-05 -6.41393e-05 0.0117117)
(1.30758e-05 -6.6491e-05 0.0117021)
(-1.30758e-05 -6.6491e-05 0.0117021)
(-3.80715e-05 -6.41393e-05 0.0117117)
(-5.94685e-05 -5.94685e-05 0.0117304)
(-7.47579e-05 -5.22867e-05 0.0117568)
(-8.22479e-05 -4.26639e-05 0.0117854)
(7.23808e-05 -5.37998e-05 0.0117941)
(6.5666e-05 -6.5666e-05 0.0117777)
(5.22867e-05 -7.47579e-05 0.0117568)
(3.35354e-05 -8.07357e-05 0.0117411)
(1.15131e-05 -8.38149e-05 0.011733)
(-1.1513e-05 -8.38149e-05 0.011733)
(-3.35354e-05 -8.07357e-05 0.0117411)
(-5.22868e-05 -7.47579e-05 0.0117568)
(-6.56661e-05 -6.56661e-05 0.0117777)
(-7.23808e-05 -5.37998e-05 0.0117941)
(6.10111e-05 -6.10111e-05 0.0117847)
(5.37998e-05 -7.23807e-05 0.0117941)
(4.26638e-05 -8.22479e-05 0.0117854)
(2.73444e-05 -8.85979e-05 0.0117755)
(9.33761e-06 -9.19563e-05 0.0117699)
(-9.3376e-06 -9.19563e-05 0.0117699)
(-2.73445e-05 -8.85979e-05 0.0117755)
(-4.26639e-05 -8.22479e-05 0.0117854)
(-5.37998e-05 -7.23807e-05 0.0117941)
(-6.10111e-05 -6.10111e-05 0.0117847)
(2.0039e-05 2.0039e-05 0.0117765)
(1.80677e-05 2.46066e-05 0.0118005)
(1.46958e-05 2.86496e-05 0.0118034)
(9.53612e-06 3.14089e-05 0.0118015)
(3.27741e-06 3.289e-05 0.0118)
(-3.27743e-06 3.289e-05 0.0118)
(-9.53612e-06 3.1409e-05 0.0118015)
(-1.46958e-05 2.86498e-05 0.0118034)
(-1.80678e-05 2.46068e-05 0.0118005)
(-2.0039e-05 2.00391e-05 0.0117765)
(2.46066e-05 1.80678e-05 0.0118005)
(2.31329e-05 2.31329e-05 0.0118022)
(1.89393e-05 2.72048e-05 0.0117956)
(1.2356e-05 3.00258e-05 0.0117897)
(4.27868e-06 3.15097e-05 0.0117864)
(-4.27867e-06 3.15097e-05 0.0117864)
(-1.23559e-05 3.00258e-05 0.0117897)
(-1.89393e-05 2.72049e-05 0.0117956)
(-2.31329e-05 2.3133e-05 0.0118022)
(-2.46067e-05 1.80678e-05 0.0118005)
(2.86496e-05 1.46958e-05 0.0118034)
(2.72048e-05 1.89393e-05 0.0117956)
(2.23407e-05 2.23407e-05 0.0117852)
(1.45904e-05 2.46842e-05 0.0117773)
(5.0611e-06 2.58976e-05 0.0117731)
(-5.06107e-06 2.58976e-05 0.0117731)
(-1.45903e-05 2.46842e-05 0.0117773)
(-2.23407e-05 2.23407e-05 0.0117852)
(-2.72048e-05 1.89393e-05 0.0117956)
(-2.86497e-05 1.46958e-05 0.0118034)
(3.14089e-05 9.53611e-06 0.0118015)
(3.00258e-05 1.2356e-05 0.0117897)
(2.46842e-05 1.45904e-05 0.0117773)
(1.61293e-05 1.61293e-05 0.0117682)
(5.59905e-06 1.6923e-05 0.0117634)
(-5.599e-06 1.6923e-05 0.0117634)
(-1.61293e-05 1.61293e-05 0.0117682)
(-2.46842e-05 1.45903e-05 0.0117773)
(-3.00258e-05 1.2356e-05 0.0117897)
(-3.1409e-05 9.53612e-06 0.0118015)
(3.289e-05 3.27741e-06 0.0118)
(3.15097e-05 4.2787e-06 0.0117864)
(2.58976e-05 5.06112e-06 0.0117731)
(1.6923e-05 5.59905e-06 0.0117634)
(5.87554e-06 5.87555e-06 0.0117584)
(-5.87551e-06 5.87554e-06 0.0117584)
(-1.6923e-05 5.59903e-06 0.0117634)
(-2.58975e-05 5.06109e-06 0.0117731)
(-3.15097e-05 4.27867e-06 0.0117864)
(-3.289e-05 3.27743e-06 0.0118)
(3.289e-05 -3.27743e-06 0.0118)
(3.15097e-05 -4.27865e-06 0.0117864)
(2.58976e-05 -5.06105e-06 0.0117731)
(1.6923e-05 -5.59899e-06 0.0117634)
(5.87553e-06 -5.8755e-06 0.0117584)
(-5.87552e-06 -5.87552e-06 0.0117584)
(-1.6923e-05 -5.59903e-06 0.0117634)
(-2.58975e-05 -5.06109e-06 0.0117731)
(-3.15096e-05 -4.27868e-06 0.0117864)
(-3.289e-05 -3.27742e-06 0.0118)
(3.1409e-05 -9.53614e-06 0.0118015)
(3.00259e-05 -1.23559e-05 0.0117897)
(2.46842e-05 -1.45903e-05 0.0117773)
(1.61293e-05 -1.61293e-05 0.0117682)
(5.59902e-06 -1.6923e-05 0.0117634)
(-5.59903e-06 -1.6923e-05 0.0117634)
(-1.61293e-05 -1.61293e-05 0.0117682)
(-2.46842e-05 -1.45903e-05 0.0117773)
(-3.00258e-05 -1.2356e-05 0.0117897)
(-3.14089e-05 -9.53614e-06 0.0118015)
(2.86498e-05 -1.46958e-05 0.0118034)
(2.72049e-05 -1.89393e-05 0.0117956)
(2.23407e-05 -2.23407e-05 0.0117852)
(1.45903e-05 -2.46842e-05 0.0117773)
(5.06108e-06 -2.58975e-05 0.0117731)
(-5.0611e-06 -2.58975e-05 0.0117731)
(-1.45903e-05 -2.46842e-05 0.0117773)
(-2.23407e-05 -2.23407e-05 0.0117852)
(-2.72048e-05 -1.89393e-05 0.0117956)
(-2.86497e-05 -1.46958e-05 0.0118034)
(2.46068e-05 -1.80678e-05 0.0118005)
(2.3133e-05 -2.3133e-05 0.0118022)
(1.89393e-05 -2.72049e-05 0.0117956)
(1.23559e-05 -3.00258e-05 0.0117897)
(4.27867e-06 -3.15097e-05 0.0117864)
(-4.27868e-06 -3.15096e-05 0.0117864)
(-1.2356e-05 -3.00258e-05 0.0117897)
(-1.89393e-05 -2.72048e-05 0.0117956)
(-2.3133e-05 -2.3133e-05 0.0118022)
(-2.46066e-05 -1.80678e-05 0.0118005)
(2.0039e-05 -2.0039e-05 0.0117765)
(1.80678e-05 -2.46067e-05 0.0118005)
(1.46958e-05 -2.86497e-05 0.0118034)
(9.53616e-06 -3.1409e-05 0.0118015)
(3.27745e-06 -3.289e-05 0.0118)
(-3.27741e-06 -3.289e-05 0.0118)
(-9.53614e-06 -3.14089e-05 0.0118015)
(-1.46958e-05 -2.86497e-05 0.0118034)
(-1.80678e-05 -2.46066e-05 0.0118005)
(-2.0039e-05 -2.0039e-05 0.0117765)
(6.96806e-06 6.96806e-06 0.0117686)
(6.36825e-06 8.67836e-06 0.0117972)
(5.26362e-06 1.02051e-05 0.0118041)
(3.44073e-06 1.12704e-05 0.0118052)
(1.18768e-06 1.18433e-05 0.0118052)
(-1.1877e-06 1.18433e-05 0.0118052)
(-3.44071e-06 1.12704e-05 0.0118052)
(-5.2636e-06 1.02051e-05 0.0118041)
(-6.36823e-06 8.67839e-06 0.0117972)
(-6.96804e-06 6.96809e-06 0.0117686)
(8.67836e-06 6.36824e-06 0.0117972)
(8.32914e-06 8.32913e-06 0.0118056)
(6.93012e-06 9.93435e-06 0.0118047)
(4.56431e-06 1.10731e-05 0.0118029)
(1.58838e-06 1.16776e-05 0.0118017)
(-1.58838e-06 1.16776e-05 0.0118017)
(-4.5643e-06 1.10731e-05 0.0118029)
(-6.93011e-06 9.93438e-06 0.0118047)
(-8.32911e-06 8.32915e-06 0.0118056)
(-8.67835e-06 6.36825e-06 0.0117972)
(1.02051e-05 5.26362e-06 0.0118041)
(9.93436e-06 6.93011e-06 0.0118047)
(8.3072e-06 8.30719e-06 0.0118013)
(5.48738e-06 9.28321e-06 0.0117984)
(1.91441e-06 9.79586e-06 0.0117968)
(-1.91438e-06 9.79587e-06 0.0117968)
(-5.48734e-06 9.28324e-06 0.0117984)
(-8.30718e-06 8.30721e-06 0.0118013)
(-9.93435e-06 6.93013e-06 0.0118047)
(-1.02051e-05 5.2636e-06 0.0118041)
(1.12704e-05 3.44074e-06 0.0118052)
(1.10731e-05 4.56432e-06 0.0118029)
(9.28322e-06 5.48737e-06 0.0117984)
(6.14287e-06 6.14287e-06 0.0117949)
(2.14593e-06 6.48659e-06 0.011793)
(-2.14589e-06 6.48659e-06 0.011793)
(-6.14285e-06 6.14287e-06 0.0117949)
(-9.28321e-06 5.48737e-06 0.0117984)
(-1.10731e-05 4.56432e-06 0.0118029)
(-1.12704e-05 3.44072e-06 0.0118052)
(1.18433e-05 1.18769e-06 0.0118052)
(1.16776e-05 1.58839e-06 0.0118017)
(9.79585e-06 1.91441e-06 0.0117968)
(6.4866e-06 2.14592e-06 0.011793)
(2.26707e-06 2.26707e-06 0.011791)
(-2.26704e-06 2.26707e-06 0.011791)
(-6.48657e-06 2.14592e-06 0.011793)
(-9.79584e-06 1.91441e-06 0.0117968)
(-1.16776e-05 1.58839e-06 0.0118017)
(-1.18433e-05 1.18771e-06 0.0118052)
(1.18433e-05 -1.18772e-06 0.0118052)
(1.16776e-05 -1.58838e-06 0.0118017)
(9.79587e-06 -1.91438e-06 0.0117968)
(6.4866e-06 -2.14588e-06 0.011793)
(2.26707e-06 -2.26703e-06 0.011791)
(-2.26704e-06 -2.26704e-06 0.011791)
(-6.48657e-06 -2.1459e-06 0.011793)
(-9.79584e-06 -1.91439e-06 0.0117968)
(-1.16776e-05 -1.58838e-06 0.0118017)
(-1.18433e-05 -1.18771e-06 0.0118052)
(1.12704e-05 -3.44071e-06 0.0118052)
(1.10731e-05 -4.56429e-06 0.0118029)
(9.28323e-06 -5.48733e-06 0.0117984)
(6.14288e-06 -6.14284e-06 0.0117949)
(2.14592e-06 -6.48657e-06 0.011793)
(-2.1459e-06 -6.48657e-06 0.011793)
(-6.14285e-06 -6.14284e-06 0.0117949)
(-9.2832e-06 -5.48734e-06 0.0117984)
(-1.10731e-05 -4.56432e-06 0.0118029)
(-1.12704e-05 -3.44074e-06 0.0118052)
(1.02052e-05 -5.26356e-06 0.0118041)
(9.93439e-06 -6.93009e-06 0.0118047)
(8.3072e-06 -8.30715e-06 0.0118013)
(5.48737e-06 -9.2832e-06 0.0117984)
(1.91441e-06 -9.79584e-06 0.0117968)
(-1.91439e-06 -9.79584e-06 0.0117968)
(-5.48734e-06 -9.28319e-06 0.0117984)
(-8.3072e-06 -8.30718e-06 0.0118013)
(-9.93439e-06 -6.93017e-06 0.0118047)
(-1.02051e-05 -5.26361e-06 0.0118041)
(8.67841e-06 -6.36823e-06 0.0117972)
(8.32915e-06 -8.32912e-06 0.0118056)
(6.93011e-06 -9.93434e-06 0.0118047)
(4.56429e-06 -1.10731e-05 0.0118029)
(1.58839e-06 -1.16776e-05 0.0118017)
(-1.58837e-06 -1.16776e-05 0.0118017)
(-4.56431e-06 -1.10731e-05 0.0118029)
(-6.93018e-06 -9.9344e-06 0.0118047)
(-8.32915e-06 -8.32915e-06 0.0118056)
(-8.67832e-06 -6.36822e-06 0.0117972)
(6.96811e-06 -6.96806e-06 0.0117686)
(6.36827e-06 -8.67837e-06 0.0117972)
(5.2636e-06 -1.02051e-05 0.0118041)
(3.44071e-06 -1.12704e-05 0.0118052)
(1.18771e-06 -1.18433e-05 0.0118052)
(-1.18771e-06 -1.18433e-05 0.0118052)
(-3.44075e-06 -1.12704e-05 0.0118052)
(-5.26362e-06 -1.02051e-05 0.0118041)
(-6.36822e-06 -8.67833e-06 0.0117972)
(-6.96805e-06 -6.96802e-06 0.0117686)
(2.39032e-06 2.39029e-06 0.011766)
(2.21712e-06 3.0399e-06 0.011796)
(1.86075e-06 3.61958e-06 0.0118042)
(1.22589e-06 4.0312e-06 0.0118062)
(4.25108e-07 4.25264e-06 0.0118068)
(-4.25138e-07 4.25265e-06 0.0118068)
(-1.22591e-06 4.03125e-06 0.0118062)
(-1.86076e-06 3.6197e-06 0.0118042)
(-2.21715e-06 3.04006e-06 0.011796)
(-2.39031e-06 2.39038e-06 0.011766)
(3.03988e-06 2.21713e-06 0.011796)
(2.9706e-06 2.97059e-06 0.0118066)
(2.50828e-06 3.59778e-06 0.0118077)
(1.66682e-06 4.05012e-06 0.0118073)
(5.82774e-07 4.29151e-06 0.0118069)
(-5.82741e-07 4.29152e-06 0.0118069)
(-1.66676e-06 4.05017e-06 0.0118073)
(-2.50823e-06 3.5979e-06 0.0118077)
(-2.97069e-06 2.97075e-06 0.0118066)
(-3.04001e-06 2.2172e-06 0.011796)
(3.61952e-06 1.86075e-06 0.0118042)
(3.59776e-06 2.50827e-06 0.0118077)
(3.05571e-06 3.0557e-06 0.0118068)
(2.03825e-06 3.45077e-06 0.0118058)
(7.14594e-07 3.65996e-06 0.0118052)
(-7.14545e-07 3.65996e-06 0.0118052)
(-2.03817e-06 3.45077e-06 0.0118058)
(-3.05563e-06 3.05568e-06 0.0118068)
(-3.59784e-06 2.50828e-06 0.0118077)
(-3.61967e-06 1.86077e-06 0.0118042)
(4.03117e-06 1.22589e-06 0.0118062)
(4.05011e-06 1.66686e-06 0.0118073)
(3.45077e-06 2.03826e-06 0.0118058)
(2.30699e-06 2.307e-06 0.0118044)
(8.10031e-07 2.44921e-06 0.0118037)
(-8.09987e-07 2.44921e-06 0.0118037)
(-2.30694e-06 2.30698e-06 0.0118044)
(-3.45072e-06 2.0382e-06 0.0118058)
(-4.05014e-06 1.66678e-06 0.0118073)
(-4.03125e-06 1.22592e-06 0.0118062)
(4.25264e-06 4.25103e-07 0.0118068)
(4.2915e-06 5.82791e-07 0.0118069)
(3.65995e-06 7.146e-07 0.0118052)
(2.4492e-06 8.10038e-07 0.0118037)
(8.60461e-07 8.60468e-07 0.0118029)
(-8.60427e-07 8.6046e-07 0.0118029)
(-2.44917e-06 8.10015e-07 0.0118037)
(-3.65992e-06 7.14566e-07 0.0118052)
(-4.29149e-06 5.82749e-07 0.0118069)
(-4.25265e-06 4.25142e-07 0.0118068)
(4.25264e-06 -4.25149e-07 0.0118068)
(4.29152e-06 -5.82744e-07 0.0118069)
(3.65996e-06 -7.14543e-07 0.0118052)
(2.4492e-06 -8.09985e-07 0.0118037)
(8.60453e-07 -8.60424e-07 0.0118029)
(-8.60439e-07 -8.60434e-07 0.0118029)
(-2.44918e-06 -8.1001e-07 0.0118037)
(-3.65992e-06 -7.14573e-07 0.0118052)
(-4.29148e-06 -5.8277e-07 0.0118069)
(-4.25265e-06 -4.25125e-07 0.0118068)
(4.03125e-06 -1.2259e-06 0.0118062)
(4.05018e-06 -1.66676e-06 0.0118073)
(3.45077e-06 -2.03818e-06 0.0118058)
(2.30697e-06 -2.30696e-06 0.0118044)
(8.10011e-07 -2.44917e-06 0.0118037)
(-8.10012e-07 -2.44917e-06 0.0118037)
(-2.30697e-06 -2.30697e-06 0.0118044)
(-3.45074e-06 -2.03821e-06 0.0118058)
(-4.05012e-06 -1.66682e-06 0.0118073)
(-4.03121e-06 -1.22591e-06 0.0118062)
(3.6197e-06 -1.86075e-06 0.0118042)
(3.59788e-06 -2.50824e-06 0.0118077)
(3.05566e-06 -3.05565e-06 0.0118068)
(2.0382e-06 -3.45073e-06 0.0118058)
(7.14574e-07 -3.65992e-06 0.0118052)
(-7.14577e-07 -3.65992e-06 0.0118052)
(-2.03822e-06 -3.45075e-06 0.0118058)
(-3.05568e-06 -3.05569e-06 0.0118068)
(-3.59781e-06 -2.5083e-06 0.0118077)
(-3.61959e-06 -1.86076e-06 0.0118042)
(3.04006e-06 -2.21717e-06 0.011796)
(2.97072e-06 -2.97073e-06 0.0118066)
(2.50827e-06 -3.59787e-06 0.0118077)
(1.6668e-06 -4.05013e-06 0.0118073)
(5.82757e-07 -4.29148e-06 0.0118069)
(-5.82786e-07 -4.29148e-06 0.0118069)
(-1.66682e-06 -4.05011e-06 0.0118073)
(-2.50829e-06 -3.59779e-06 0.0118077)
(-2.97063e-06 -2.97064e-06 0.0118066)
(-3.03991e-06 -2.21715e-06 0.011796)
(2.39036e-06 -2.39031e-06 0.011766)
(2.21717e-06 -3.04e-06 0.011796)
(1.86081e-06 -3.61965e-06 0.0118042)
(1.22596e-06 -4.03124e-06 0.0118062)
(4.25146e-07 -4.25266e-06 0.0118068)
(-4.25132e-07 -4.25264e-06 0.0118068)
(-1.2259e-06 -4.0312e-06 0.0118062)
(-1.86076e-06 -3.61958e-06 0.0118042)
(-2.21716e-06 -3.03991e-06 0.011796)
(-2.39031e-06 -2.3903e-06 0.011766)
(8.24101e-07 8.2409e-07 0.0117651)
(7.70806e-07 1.06148e-06 0.0117956)
(6.52462e-07 1.27407e-06 0.0118042)
(4.31682e-07 1.42751e-06 0.0118066)
(1.50094e-07 1.51035e-06 0.0118073)
(-1.50113e-07 1.51036e-06 0.0118073)
(-4.31659e-07 1.4275e-06 0.0118066)
(-6.52432e-07 1.27405e-06 0.0118042)
(-7.70784e-07 1.06149e-06 0.0117956)
(-8.24068e-07 8.24139e-07 0.0117651)
(1.06147e-06 7.70782e-07 0.0117956)
(1.04931e-06 1.04929e-06 0.011807)
(8.9466e-07 1.28498e-06 0.0118087)
(5.98148e-07 1.45756e-06 0.0118089)
(2.09812e-07 1.55027e-06 0.0118088)
(-2.09818e-07 1.55028e-06 0.0118088)
(-5.9816e-07 1.45758e-06 0.0118089)
(-8.94649e-07 1.28497e-06 0.0118087)
(-1.04926e-06 1.0493e-06 0.011807)
(-1.06145e-06 7.70804e-07 0.0117956)
(1.27405e-06 6.5245e-07 0.0118042)
(1.28499e-06 8.94662e-07 0.0118087)
(1.10379e-06 1.10379e-06 0.0118088)
(7.41673e-07 1.25727e-06 0.0118085)
(2.61007e-07 1.33923e-06 0.0118083)
(-2.60998e-07 1.33924e-06 0.0118083)
(-7.41671e-07 1.25729e-06 0.0118085)
(-1.10377e-06 1.10381e-06 0.0118088)
(-1.28495e-06 8.94675e-07 0.0118087)
(-1.27405e-06 6.5245e-07 0.0118042)
(1.42752e-06 4.31689e-07 0.0118066)
(1.45758e-06 5.98156e-07 0.0118089)
(1.25727e-06 7.41671e-07 0.0118085)
(8.47368e-07 8.47369e-07 0.011808)
(2.9875e-07 9.03816e-07 0.0118077)
(-2.98732e-07 9.03818e-07 0.0118077)
(-8.47363e-07 8.47383e-07 0.011808)
(-1.25726e-06 7.41687e-07 0.0118085)
(-1.45755e-06 5.98159e-07 0.0118089)
(-1.4275e-06 4.31688e-07 0.0118066)
(1.51036e-06 1.501e-07 0.0118073)
(1.55027e-06 2.09802e-07 0.0118088)
(1.33923e-06 2.60997e-07 0.0118083)
(9.03818e-07 2.98747e-07 0.0118077)
(3.18889e-07 3.18887e-07 0.0118074)
(-3.18863e-07 3.18888e-07 0.0118074)
(-9.038e-07 2.98756e-07 0.0118077)
(-1.33921e-06 2.61019e-07 0.0118083)
(-1.55024e-06 2.09819e-07 0.0118088)
(-1.51035e-06 1.50107e-07 0.0118073)
(1.51036e-06 -1.50121e-07 0.0118073)
(1.55028e-06 -2.09815e-07 0.0118088)
(1.33924e-06 -2.60995e-07 0.0118083)
(9.03825e-07 -2.9873e-07 0.0118077)
(3.18891e-07 -3.18859e-07 0.0118074)
(-3.18862e-07 -3.1886e-07 0.0118074)
(-9.03799e-07 -2.98731e-07 0.0118077)
(-1.33922e-06 -2.60997e-07 0.0118083)
(-1.55026e-06 -2.09822e-07 0.0118088)
(-1.51035e-06 -1.50113e-07 0.0118073)
(1.42753e-06 -4.3167e-07 0.0118066)
(1.45759e-06 -5.98137e-07 0.0118089)
(1.25728e-06 -7.41661e-07 0.0118085)
(8.47386e-07 -8.47354e-07 0.011808)
(2.98757e-07 -9.0379e-07 0.0118077)
(-2.98736e-07 -9.03797e-07 0.0118077)
(-8.47368e-07 -8.47366e-07 0.011808)
(-1.25728e-06 -7.41673e-07 0.0118085)
(-1.45755e-06 -5.98151e-07 0.0118089)
(-1.4275e-06 -4.31656e-07 0.0118066)
(1.27408e-06 -6.52424e-07 0.0118042)
(1.28498e-06 -8.94657e-07 0.0118087)
(1.1038e-06 -1.10378e-06 0.0118088)
(7.41695e-07 -1.25725e-06 0.0118085)
(2.61014e-07 -1.33921e-06 0.0118083)
(-2.61007e-07 -1.33922e-06 0.0118083)
(-7.41675e-07 -1.25727e-06 0.0118085)
(-1.10378e-06 -1.10378e-06 0.0118088)
(-1.28494e-06 -8.94638e-07 0.0118087)
(-1.27406e-06 -6.5243e-07 0.0118042)
(1.06147e-06 -7.70759e-07 0.0117956)
(1.04929e-06 -1.04926e-06 0.011807)
(8.94683e-07 -1.28493e-06 0.0118087)
(5.98178e-07 -1.45753e-06 0.0118089)
(2.09814e-07 -1.55024e-06 0.0118088)
(-2.09826e-07 -1.55025e-06 0.0118088)
(-5.98146e-07 -1.45754e-06 0.0118089)
(-8.94643e-07 -1.28494e-06 0.0118087)
(-1.04927e-06 -1.04928e-06 0.011807)
(-1.06148e-06 -7.70823e-07 0.0117956)
(8.24094e-07 -8.24048e-07 0.0117651)
(7.70809e-07 -1.0614e-06 0.0117956)
(6.52462e-07 -1.27401e-06 0.0118042)
(4.31672e-07 -1.42749e-06 0.0118066)
(1.50093e-07 -1.51035e-06 0.0118073)