/*--------------------------------*- C++ -*----------------------------------*\
| =========                 |                                                 |
| \\      /  F ield         | OpenFOAM: The Open Source CFD Toolbox           |
|  \\    /   O peration     | Version:  2412                                  |
|   \\  /    A nd           | Website:  www.openfoam.com                      |
|    \\/     M anipulation  |                                                 |
\*---------------------------------------------------------------------------*/
FoamFile
{
    version     2.0;
    format      ascii;
    arch        "LSB;label=32;scalar=64";
    class       surfaceScalarField;
    location    "0.1";
    object      phi;
}
// * * * * * * * * * * * * * * * * * * * * * * * * * * * * * * * * * * * * * //

dimensions      [0 3 -1 0 0 0 0];

oriented        oriented;

internalField   nonuniform List<scalar> 
43700
(
3.50563e-05
3.50563e-05
5.67902e-05
-3.99504e-05
-3.99504e-05
2.79905e-05
3.49072e-05
6.36099e-05
-4.05129e-05
1.93671e-05
3.43014e-05
6.84081e-05
-4.0143e-05
9.87237e-06
3.37138e-05
7.14682e-05
-3.97161e-05
3.93526e-11
3.33731e-05
7.29485e-05
-3.94565e-05
-9.8723e-06
3.33731e-05
7.29485e-05
-3.94565e-05
-1.9367e-05
3.37138e-05
7.14682e-05
-3.97161e-05
-2.79904e-05
3.43014e-05
6.84081e-05
-4.0143e-05
-3.50562e-05
3.49072e-05
6.36099e-05
-4.05129e-05
3.50563e-05
5.67902e-05
-3.99504e-05
-3.99504e-05
3.49072e-05
2.79905e-05
6.36099e-05
-4.05129e-05
2.72475e-05
2.72474e-05
6.99038e-05
1.85279e-05
2.64302e-05
7.39597e-05
9.34165e-06
2.57696e-05
7.63801e-05
4.98306e-11
2.54065e-05
7.75055e-05
-9.34155e-06
2.54065e-05
7.75055e-05
-1.85278e-05
2.57696e-05
7.63801e-05
-2.72474e-05
2.64302e-05
7.39597e-05
-3.49071e-05
2.72474e-05
6.99039e-05
2.79905e-05
6.36099e-05
-4.05129e-05
3.43014e-05
1.9367e-05
6.84081e-05
-4.0143e-05
2.64302e-05
1.85279e-05
7.39597e-05
1.77632e-05
1.77632e-05
7.73214e-05
8.88674e-06
1.71925e-05
7.92098e-05
5.80867e-11
1.68893e-05
8.00516e-05
-8.88663e-06
1.68893e-05
8.00516e-05
-1.77631e-05
1.71925e-05
7.92098e-05
-2.64301e-05
1.77632e-05
7.73214e-05
-3.43013e-05
1.85279e-05
7.39597e-05
1.9367e-05
6.84081e-05
-4.01429e-05
3.37138e-05
9.87237e-06
7.14682e-05
-3.97161e-05
2.57696e-05
9.34165e-06
7.63801e-05
1.71925e-05
8.88674e-06
7.92098e-05
8.55828e-06
8.55828e-06
8.07188e-05
6.24912e-11
8.38666e-06
8.13651e-05
-8.55816e-06
8.38666e-06
8.13651e-05
-1.71924e-05
8.55828e-06
8.07188e-05
-2.57695e-05
8.88674e-06
7.92098e-05
-3.37137e-05
9.34164e-06
7.63801e-05
9.87237e-06
7.14682e-05
-3.9716e-05
3.33731e-05
3.94934e-11
7.29485e-05
-3.94565e-05
2.54065e-05
5.17819e-11
7.75055e-05
1.68893e-05
5.87277e-11
8.00516e-05
8.38666e-06
6.21641e-11
8.13651e-05
6.43603e-11
6.46673e-11
8.19124e-05
-8.38653e-06
6.47955e-11
8.19124e-05
-1.68892e-05
6.394e-11
8.13651e-05
-2.54063e-05
6.08218e-11
8.00517e-05
-3.3373e-05
5.41075e-11
7.75055e-05
4.25424e-11
7.29485e-05
-3.94564e-05
3.33731e-05
-9.8723e-06
7.29485e-05
-3.94565e-05
2.54065e-05
-9.34154e-06
7.75055e-05
1.68893e-05
-8.88663e-06
8.00516e-05
8.38666e-06
-8.55816e-06
8.13651e-05
6.43247e-11
-8.38653e-06
8.19124e-05
-8.38653e-06
-8.38653e-06
8.19124e-05
-1.68892e-05
-8.55815e-06
8.13651e-05
-2.54063e-05
-8.88662e-06
8.00517e-05
-3.3373e-05
-9.34154e-06
7.75055e-05
-9.87229e-06
7.29485e-05
-3.94564e-05
3.37138e-05
-1.9367e-05
7.14682e-05
-3.97161e-05
2.57696e-05
-1.85278e-05
7.63801e-05
1.71925e-05
-1.77631e-05
7.92098e-05
8.55828e-06
-1.71924e-05
8.07188e-05
6.456e-11
-1.68892e-05
8.13651e-05
-8.55815e-06
-1.68892e-05
8.13651e-05
-1.71924e-05
-1.71924e-05
8.07188e-05
-2.57695e-05
-1.77631e-05
7.92098e-05
-3.37137e-05
-1.85278e-05
7.63801e-05
-1.9367e-05
7.14682e-05
-3.9716e-05
3.43014e-05
-2.79904e-05
6.84081e-05
-4.01429e-05
2.64302e-05
-2.72474e-05
7.39597e-05
1.77632e-05
-2.64301e-05
7.73214e-05
8.88674e-06
-2.57695e-05
7.92098e-05
6.17171e-11
-2.54063e-05
8.00517e-05
-8.88662e-06
-2.54063e-05
8.00517e-05
-1.77631e-05
-2.57695e-05
7.92098e-05
-2.64301e-05
-2.64301e-05
7.73214e-05
-3.43013e-05
-2.72473e-05
7.39597e-05
-2.79904e-05
6.84081e-05
-4.01429e-05
3.49072e-05
-3.50562e-05
6.36099e-05
-4.05129e-05
2.72474e-05
-3.49071e-05
6.99039e-05
1.85279e-05
-3.43013e-05
7.39597e-05
9.34164e-06
-3.37137e-05
7.63801e-05
5.52915e-11
-3.3373e-05
7.75055e-05
-9.34154e-06
-3.3373e-05
7.75055e-05
-1.85278e-05
-3.37137e-05
7.63801e-05
-2.72473e-05
-3.43013e-05
7.39597e-05
-3.49071e-05
-3.49071e-05
6.99039e-05
-3.50562e-05
6.36099e-05
-4.05129e-05
3.50563e-05
5.67902e-05
-3.99504e-05
-3.99504e-05
2.79905e-05
6.36099e-05
-4.05129e-05
1.9367e-05
6.84081e-05
-4.01429e-05
9.87237e-06
7.14682e-05
-3.9716e-05
4.37194e-11
7.29485e-05
-3.94564e-05
-9.87229e-06
7.29485e-05
-3.94564e-05
-1.9367e-05
7.14682e-05
-3.9716e-05
-2.79904e-05
6.84081e-05
-4.01429e-05
-3.50562e-05
6.36099e-05
-4.05129e-05
5.67902e-05
-3.99504e-05
-3.99504e-05
1.98756e-05
1.98756e-05
5.71034e-05
-2.00322e-05
-2.00322e-05
1.73625e-05
2.21641e-05
6.61822e-05
-2.22233e-05
1.27967e-05
2.37465e-05
7.3047e-05
-2.38196e-05
6.77494e-06
2.4744e-05
7.76045e-05
-2.48585e-05
1.32993e-10
2.52207e-05
7.98657e-05
-2.53631e-05
-6.77468e-06
2.52207e-05
7.98657e-05
-2.53631e-05
-1.27965e-05
2.4744e-05
7.76045e-05
-2.48585e-05
-1.73623e-05
2.37465e-05
7.3047e-05
-2.38196e-05
-1.98755e-05
2.21641e-05
6.61823e-05
-2.22232e-05
1.98756e-05
5.71034e-05
-2.00321e-05
-2.00322e-05
2.21641e-05
1.73625e-05
6.61822e-05
-2.22233e-05
1.92424e-05
1.92424e-05
7.57473e-05
1.40659e-05
2.05077e-05
8.2375e-05
7.40126e-06
2.12791e-05
8.65097e-05
1.91032e-10
2.16412e-05
8.8486e-05
-7.40089e-06
2.16412e-05
8.8486e-05
-1.40655e-05
2.1279e-05
8.65097e-05
-1.92421e-05
2.05076e-05
8.23751e-05
-2.21639e-05
1.92423e-05
7.57474e-05
1.73624e-05
6.61823e-05
-2.22231e-05
2.37465e-05
1.27967e-05
7.3047e-05
-2.38196e-05
2.05077e-05
1.40659e-05
8.2375e-05
1.49065e-05
1.49065e-05
8.85238e-05
7.81072e-06
1.54048e-05
9.21798e-05
2.44512e-10
1.56351e-05
9.38683e-05
-7.81025e-06
1.5635e-05
9.38683e-05
-1.4906e-05
1.54048e-05
9.21798e-05
-2.05073e-05
1.49064e-05
8.85239e-05
-2.37462e-05
1.40658e-05
8.23751e-05
1.27967e-05
7.30471e-05
-2.38194e-05
2.4744e-05
6.77495e-06
7.76045e-05
-2.48585e-05
2.12791e-05
7.40127e-06
8.65097e-05
1.54048e-05
7.81074e-06
9.21798e-05
8.04844e-06
8.04847e-06
9.54315e-05
2.82912e-10
8.15694e-06
9.68913e-05
-8.0479e-06
8.15693e-06
9.68913e-05
-1.54043e-05
8.04845e-06
9.54315e-05
-2.12786e-05
7.81072e-06
9.21799e-05
-2.47437e-05
7.40124e-06
8.65098e-05
6.77492e-06
7.76046e-05
-2.48583e-05
2.52207e-05
1.39897e-10
7.98657e-05
-2.53631e-05
2.16412e-05
2.06271e-10
8.8486e-05
1.5635e-05
2.63907e-10
9.38683e-05
8.15691e-06
3.06622e-10
9.68913e-05
3.04375e-10
3.3171e-10
9.82257e-05
-8.15632e-06
3.31212e-10
9.82257e-05
-1.56345e-05
3.08893e-10
9.68914e-05
-2.16408e-05
2.63371e-10
9.38684e-05
-2.52203e-05
2.03909e-10
8.84861e-05
1.38974e-10
7.98658e-05
-2.53629e-05
2.52207e-05
-6.77467e-06
7.98657e-05
-2.53631e-05
2.16412e-05
-7.40087e-06
8.8486e-05
1.5635e-05
-7.81023e-06
9.38683e-05
8.15691e-06
-8.04787e-06
9.68913e-05
3.0388e-10
-8.1563e-06
9.82257e-05
-8.15632e-06
-8.15629e-06
9.82257e-05
-1.56345e-05
-8.04785e-06
9.68914e-05
-2.16408e-05
-7.81021e-06
9.38684e-05
-2.52203e-05
-7.40085e-06
8.84861e-05
-6.77465e-06
7.98659e-05
-2.53629e-05
2.4744e-05
-1.27965e-05
7.76045e-05
-2.48585e-05
2.1279e-05
-1.40655e-05
8.65097e-05
1.54048e-05
-1.4906e-05
9.21799e-05
8.04843e-06
-1.54043e-05
9.54315e-05
2.84529e-10
-1.56345e-05
9.68914e-05
-8.04788e-06
-1.56345e-05
9.68914e-05
-1.54043e-05
-1.54042e-05
9.54315e-05
-2.12786e-05
-1.4906e-05
9.21799e-05
-2.47436e-05
-1.40655e-05
8.65098e-05
-1.27964e-05
7.76046e-05
-2.48583e-05
2.37465e-05
-1.73622e-05
7.3047e-05
-2.38196e-05
2.05076e-05
-1.92421e-05
8.23751e-05
1.49064e-05
-2.05073e-05
8.85239e-05
7.8107e-06
-2.12786e-05
9.21799e-05
2.44708e-10
-2.16407e-05
9.38684e-05
-7.81023e-06
-2.16407e-05
9.38684e-05
-1.4906e-05
-2.12786e-05
9.21799e-05
-2.05073e-05
-2.05072e-05
8.8524e-05
-2.37462e-05
-1.9242e-05
8.23752e-05
-1.73622e-05
7.30471e-05
-2.38194e-05
2.21641e-05
-1.98755e-05
6.61823e-05
-2.22232e-05
1.92423e-05
-2.21639e-05
7.57474e-05
1.40658e-05
-2.37462e-05
8.23751e-05
7.40123e-06
-2.47436e-05
8.65098e-05
1.93445e-10
-2.52203e-05
8.84861e-05
-7.40086e-06
-2.52203e-05
8.84861e-05
-1.40655e-05
-2.47436e-05
8.65098e-05
-1.9242e-05
-2.37462e-05
8.23752e-05
-2.21638e-05
-2.21638e-05
7.57475e-05
-1.98754e-05
6.61824e-05
-2.22231e-05
1.98756e-05
5.71034e-05
-2.00321e-05
-2.00322e-05
1.73624e-05
6.61823e-05
-2.22231e-05
1.27967e-05
7.30471e-05
-2.38194e-05
6.77492e-06
7.76046e-05
-2.48583e-05
1.34794e-10
7.98658e-05
-2.53628e-05
-6.77465e-06
7.98659e-05
-2.53628e-05
-1.27964e-05
7.76046e-05
-2.48583e-05
-1.73622e-05
7.30471e-05
-2.38194e-05
-1.98754e-05
6.61824e-05
-2.22231e-05
5.71035e-05
-2.00321e-05
-2.00321e-05
1.18443e-05
1.18443e-05
5.5141e-05
-1.08631e-05
-1.08631e-05
1.09767e-05
1.39399e-05
6.57036e-05
-1.25937e-05
8.42006e-06
1.54734e-05
7.40358e-05
-1.39057e-05
4.56187e-06
1.65089e-05
7.97616e-05
-1.48079e-05
1.79239e-10
1.70294e-05
8.2663e-05
-1.5265e-05
-4.56152e-06
1.70294e-05
8.26631e-05
-1.5265e-05
-8.41974e-06
1.65088e-05
7.97617e-05
-1.48078e-05
-1.09764e-05
1.54733e-05
7.40359e-05
-1.39056e-05
-1.18441e-05
1.39398e-05
6.57038e-05
-1.25937e-05
1.18442e-05
5.51411e-05
-1.08629e-05
-1.0863e-05
1.39399e-05
1.09767e-05
6.57036e-05
-1.25937e-05
1.29692e-05
1.29692e-05
7.76887e-05
9.92586e-06
1.44082e-05
8.64836e-05
5.36238e-06
1.53533e-05
9.22287e-05
2.84081e-10
1.58214e-05
9.50561e-05
-5.36183e-06
1.58214e-05
9.50561e-05
-9.92536e-06
1.53532e-05
9.22288e-05
-1.29688e-05
1.44081e-05
8.64837e-05
-1.39396e-05
1.29691e-05
7.76889e-05
1.09766e-05
6.57038e-05
-1.25935e-05
1.54734e-05
8.42005e-06
7.40358e-05
-1.39056e-05
1.44082e-05
9.92587e-06
8.64836e-05
1.10152e-05
1.10152e-05
9.53097e-05
5.94297e-06
1.17189e-05
0.000100886
3.87625e-10
1.20638e-05
0.000103569
-5.94223e-06
1.20637e-05
0.000103569
-1.10145e-05
1.17188e-05
0.000100887
-1.44076e-05
1.10152e-05
9.53099e-05
-1.54729e-05
9.9258e-06
8.64838e-05
8.41999e-06
7.4036e-05
-1.39054e-05
1.65088e-05
4.56187e-06
7.97616e-05
-1.48078e-05
1.53533e-05
5.3624e-06
9.22287e-05
1.17188e-05
5.94299e-06
0.000100886
6.31453e-06
6.31457e-06
0.00010624
4.66292e-10
6.49556e-06
0.000108774
-6.31363e-06
6.49555e-06
0.000108774
-1.1718e-05
6.31455e-06
0.00010624
-1.53526e-05
5.94296e-06
0.000100887
-1.65083e-05
5.36236e-06
9.22289e-05
4.56184e-06
7.97619e-05
-1.48075e-05
1.70294e-05
1.77092e-10
8.2663e-05
-1.5265e-05
1.58214e-05
2.98592e-10
9.50561e-05
1.20637e-05
4.14635e-10
0.000103569
6.49551e-06
5.06173e-10
0.000108774
5.12294e-10
5.59915e-10
0.000111216
-6.49453e-06
5.60101e-10
0.000111216
-1.20628e-05
5.12876e-10
0.000108774
-1.58207e-05
4.19839e-10
0.000103569
-1.70288e-05
3.05245e-10
9.50563e-05
1.89481e-10
8.26633e-05
-1.52646e-05
1.70294e-05
-4.56153e-06
8.26631e-05
-1.5265e-05
1.58214e-05
-5.36182e-06
9.50561e-05
1.20637e-05
-5.9422e-06
0.000103569
6.49551e-06
-6.3136e-06
0.000108774
5.12288e-10
-6.49448e-06
0.000111216
-6.49451e-06
-6.49447e-06
0.000111216
-1.20628e-05
-6.31357e-06
0.000108774
-1.58207e-05
-5.94216e-06
0.000103569
-1.70288e-05
-5.36177e-06
9.50564e-05
-4.56148e-06
8.26633e-05
-1.52646e-05
1.65088e-05
-8.41974e-06
7.97617e-05
-1.48078e-05
1.53532e-05
-9.92535e-06
9.22288e-05
1.17188e-05
-1.10145e-05
0.000100887
6.31451e-06
-1.1718e-05
0.00010624
4.71442e-10
-1.20628e-05
0.000108774
-6.3136e-06
-1.20628e-05
0.000108774
-1.1718e-05
-1.17179e-05
0.00010624
-1.53525e-05
-1.10144e-05
0.000100887
-1.65083e-05
-9.92528e-06
9.2229e-05
-8.41966e-06
7.9762e-05
-1.48075e-05
1.54733e-05
-1.09764e-05
7.40359e-05
-1.39056e-05
1.44081e-05
-1.29688e-05
8.64838e-05
1.10151e-05
-1.44076e-05
9.53099e-05
5.94293e-06
-1.53526e-05
0.000100887
3.9216e-10
-1.58206e-05
0.000103569
-5.94218e-06
-1.58206e-05
0.000103569
-1.10145e-05
-1.53525e-05
0.000100887
-1.44075e-05
-1.44075e-05
9.53101e-05
-1.54729e-05
-1.29687e-05
8.6484e-05
-1.09763e-05
7.40362e-05
-1.39053e-05
1.39398e-05
-1.18441e-05
6.57038e-05
-1.25936e-05
1.29691e-05
-1.39396e-05
7.76889e-05
9.92578e-06
-1.54729e-05
8.64838e-05
5.36235e-06
-1.65083e-05
9.2229e-05
2.94026e-10
-1.70288e-05
9.50563e-05
-5.36178e-06
-1.70288e-05
9.50564e-05
-9.92528e-06
-1.65083e-05
9.2229e-05
-1.29687e-05
-1.54729e-05
8.6484e-05
-1.39395e-05
-1.39395e-05
7.76891e-05
-1.1844e-05
6.5704e-05
-1.25934e-05
1.18442e-05
5.51411e-05
-1.08629e-05
-1.0863e-05
1.09766e-05
6.57038e-05
-1.25935e-05
8.41998e-06
7.40361e-05
-1.39053e-05
4.56184e-06
7.97619e-05
-1.48075e-05
1.8956e-10
8.26633e-05
-1.52646e-05
-4.56147e-06
8.26633e-05
-1.52646e-05
-8.41965e-06
7.9762e-05
-1.48074e-05
-1.09763e-05
7.40362e-05
-1.39053e-05
-1.1844e-05
6.5704e-05
-1.25934e-05
5.51413e-05
-1.08629e-05
-1.08629e-05
5.83584e-06
5.83582e-06
5.37539e-05
-5.14229e-06
-5.14228e-06
5.61492e-06
7.21333e-06
6.48885e-05
-6.17726e-06
4.42949e-06
8.31381e-06
7.39386e-05
-7.03116e-06
2.44173e-06
9.09658e-06
8.02965e-05
-7.64366e-06
1.21984e-10
9.50191e-06
8.3564e-05
-7.96131e-06
-2.44149e-06
9.50189e-06
8.35641e-05
-7.96129e-06
-4.42926e-06
9.09652e-06
8.02966e-05
-7.6436e-06
-5.61472e-06
8.31371e-06
7.39388e-05
-7.03108e-06
-5.83568e-06
7.21321e-06
6.48887e-05
-6.17716e-06
5.8357e-06
5.37541e-05
-5.14217e-06
-5.14217e-06
7.21334e-06
5.61488e-06
6.48885e-05
-6.17728e-06
7.02539e-06
7.02536e-06
7.80647e-05
5.55764e-06
8.1408e-06
8.81244e-05
3.06319e-06
8.91777e-06
9.4902e-05
2.49519e-10
9.31609e-06
9.83049e-05
-3.06271e-06
9.31607e-06
9.83049e-05
-5.55721e-06
8.91771e-06
9.49021e-05
-7.02502e-06
8.14071e-06
8.81246e-05
-7.21306e-06
7.02526e-06
7.80649e-05
5.61478e-06
6.48888e-05
-6.17707e-06
8.31382e-06
4.42945e-06
7.39386e-05
-7.03116e-06
8.14081e-06
5.55762e-06
8.81244e-05
6.45254e-06
6.45253e-06
9.86863e-05
3.55768e-06
7.06832e-06
0.000105631
3.84078e-10
7.3817e-06
0.00010906
-3.55694e-06
7.38168e-06
0.00010906
-6.45188e-06
7.06828e-06
0.000105631
-8.14026e-06
6.45248e-06
9.86865e-05
-8.31341e-06
5.55755e-06
8.81247e-05
4.42938e-06
7.39389e-05
-7.03089e-06
9.09658e-06
2.44169e-06
8.02965e-05
-7.64366e-06
8.91776e-06
3.06317e-06
9.4902e-05
7.06831e-06
3.55767e-06
0.000105631
3.89581e-06
3.89582e-06
0.000112585
4.91843e-10
4.06719e-06
0.000115983
-3.89486e-06
4.06719e-06
0.000115983
-7.06746e-06
3.89581e-06
0.000112585
-8.91707e-06
3.55765e-06
0.000105631
-9.09606e-06
3.06315e-06
9.49023e-05
2.44168e-06
8.02968e-05
-7.64332e-06
9.5019e-06
8.03499e-11
8.35641e-05
-7.9613e-06
9.31607e-06
2.29259e-10
9.83049e-05
7.38168e-06
3.83156e-10
0.00010906
4.06716e-06
5.10274e-10
0.000115983
5.57447e-10
5.87933e-10
0.000119349
-4.06609e-06
5.92178e-10
0.000119349
-7.38072e-06
5.32405e-10
0.000115984
-9.31529e-06
4.12395e-10
0.000109061
-9.50132e-06
2.69084e-10
9.83052e-05
1.31516e-10
8.35645e-05
-7.96092e-06
9.50187e-06
-2.44154e-06
8.35641e-05
-7.96127e-06
9.31604e-06
-3.06273e-06
9.83049e-05
7.38166e-06
-3.55694e-06
0.00010906
4.06716e-06
-3.89484e-06
0.000115984
5.60015e-10
-4.06607e-06
0.000119349
-4.06607e-06
-4.06605e-06
0.000119349
-7.3807e-06
-3.89479e-06
0.000115984
-9.31526e-06
-3.55686e-06
0.000109061
-9.50129e-06
-3.06263e-06
9.83053e-05
-2.44143e-06
8.35645e-05
-7.9609e-06
9.0965e-06
-4.4293e-06
8.02966e-05
-7.64359e-06
8.91769e-06
-5.55723e-06
9.49021e-05
7.06825e-06
-6.45188e-06
0.000105631
3.89578e-06
-7.06745e-06
0.000112585
5.07996e-10
-7.3807e-06
0.000115984
-3.89481e-06
-7.38067e-06
0.000115984
-7.06739e-06
-7.06738e-06
0.000112585
-8.91698e-06
-6.45178e-06
0.000105631
-9.09598e-06
-5.55709e-06
9.49025e-05
-4.42916e-06
8.0297e-05
-7.64325e-06
8.31371e-06
-5.61476e-06
7.39388e-05
-7.03107e-06
8.1407e-06
-7.02504e-06
8.81246e-05
6.45246e-06
-8.14027e-06
9.86865e-05
3.55764e-06
-8.91706e-06
0.000105631
4.07022e-10
-9.31527e-06
0.000109061
-3.55687e-06
-9.31524e-06
0.000109061
-6.45177e-06
-8.91698e-06
0.000105631
-8.14013e-06
-8.14014e-06
9.86868e-05
-8.31328e-06
-7.02489e-06
8.81249e-05
-5.6146e-06
7.39391e-05
-7.03079e-06
7.21321e-06
-5.83571e-06
6.48887e-05
-6.17716e-06
7.02526e-06
-7.21307e-06
7.80649e-05
5.55755e-06
-8.31341e-06
8.81247e-05
3.06316e-06
-9.09605e-06
9.49023e-05
2.83128e-10
-9.50131e-06
9.83053e-05
-3.06262e-06
-9.50128e-06
9.83053e-05
-5.55707e-06
-9.09597e-06
9.49025e-05
-7.02487e-06
-8.31329e-06
8.81249e-05
-7.21291e-06
-7.21294e-06
7.80652e-05
-5.83556e-06
6.4889e-05
-6.17696e-06
5.83571e-06
5.37541e-05
-5.14218e-06
-5.14217e-06
5.61479e-06
6.48888e-05
-6.17708e-06
4.4294e-06
7.39389e-05
-7.03088e-06
2.4417e-06
8.02968e-05
-7.64331e-06
1.5436e-10
8.35645e-05
-7.96091e-06
-2.4414e-06
8.35645e-05
-7.96089e-06
-4.42913e-06
8.0297e-05
-7.64325e-06
-5.61457e-06
7.39391e-05
-7.0308e-06
-5.83554e-06
6.4889e-05
-6.17698e-06
5.37543e-05
-5.14205e-06
-5.14207e-06
3.096e-06
3.09595e-06
5.28366e-05
-2.63733e-06
-2.63729e-06
3.04742e-06
3.88728e-06
6.42534e-05
-3.20358e-06
2.44469e-06
4.53982e-06
7.36797e-05
-3.6782e-06
1.36142e-06
5.01698e-06
8.03878e-05
-4.02506e-06
1.2254e-11
5.26851e-06
8.38643e-05
-4.20734e-06
-1.36139e-06
5.26849e-06
8.38643e-05
-4.20732e-06
-2.44465e-06
5.01692e-06
8.03879e-05
-4.02501e-06
-3.04737e-06
4.53973e-06
7.36799e-05
-3.67813e-06
-3.09596e-06
3.88717e-06
6.42536e-05
-3.20348e-06
3.09584e-06
5.28368e-05
-2.63728e-06
-2.6372e-06
3.88733e-06
3.04734e-06
6.42534e-05
-3.20361e-06
3.89437e-06
3.8943e-06
7.80506e-05
3.14469e-06
4.59239e-06
8.88215e-05
1.75502e-06
5.09487e-06
9.62138e-05
1.32632e-10
5.35776e-06
9.99705e-05
-1.75476e-06
5.35775e-06
9.99705e-05
-3.14446e-06
5.09482e-06
9.62139e-05
-3.89416e-06
4.59232e-06
8.88217e-05
-3.88717e-06
3.89421e-06
7.80509e-05
3.04725e-06
6.42537e-05
-3.20348e-06
4.53986e-06
2.4446e-06
7.36797e-05
-3.67822e-06
4.59245e-06
3.14462e-06
8.88215e-05
3.72706e-06
3.727e-06
0.000100417
2.08464e-06
4.1427e-06
0.000108225
2.71111e-10
4.35902e-06
0.000112143
-2.08413e-06
4.35901e-06
0.000112143
-3.7266e-06
4.14267e-06
0.000108226
-4.59206e-06
3.72697e-06
0.000100417
-4.53958e-06
3.14458e-06
8.88218e-05
2.44456e-06
7.36801e-05
-3.67803e-06
5.01701e-06
1.36132e-06
8.03878e-05
-4.02508e-06
5.0949e-06
1.75494e-06
9.62138e-05
4.14273e-06
2.08459e-06
0.000108225
2.31899e-06
2.31896e-06
0.000116233
3.88941e-10
2.44057e-06
0.00012022
-2.31825e-06
2.44057e-06
0.000120221
-4.14207e-06
2.31897e-06
0.000116233
-5.09436e-06
2.0846e-06
0.000108226
-5.01661e-06
1.75496e-06
9.62142e-05
1.36135e-06
8.03883e-05
-4.02482e-06
5.26852e-06
-8.88992e-11
8.38643e-05
-4.20734e-06
5.35778e-06
5.12721e-11
9.99705e-05
4.35904e-06
2.12021e-10
0.000112143
2.44059e-06
3.52952e-10
0.00012022
4.64386e-10
4.44653e-10
0.000124229
-2.4397e-06
4.56576e-10
0.000124229
-4.35826e-06
4.00404e-10
0.000120221
-5.35715e-06
2.80353e-10
0.000112144
-5.26806e-06
1.41431e-10
9.9971e-05
1.78736e-11
8.38648e-05
-4.20705e-06
5.26849e-06
-1.36149e-06
8.38643e-05
-4.20732e-06
5.35775e-06
-1.75484e-06
9.99706e-05
4.35902e-06
-2.08418e-06
0.000112143
2.44058e-06
-2.31829e-06
0.000120221
4.71606e-10
-2.43973e-06
0.000124229
-2.43967e-06
-2.4397e-06
0.000124229
-4.35823e-06
-2.31821e-06
0.000120221
-5.35711e-06
-2.08406e-06
0.000112144
-5.26802e-06
-1.75469e-06
9.99711e-05
-1.36133e-06
8.38648e-05
-4.20702e-06
5.01693e-06
-2.44475e-06
8.03879e-05
-4.02501e-06
5.09483e-06
-3.14454e-06
9.62139e-05
4.14268e-06
-3.72665e-06
0.000108226
2.31898e-06
-4.1421e-06
0.000116233
4.20675e-10
-4.35828e-06
0.000120221
-2.31818e-06
-4.35824e-06
0.000120221
-4.14198e-06
-4.14201e-06
0.000116233
-5.09426e-06
-3.7265e-06
0.000108226
-5.01651e-06
-3.14435e-06
9.62144e-05
-2.44455e-06
8.03884e-05
-4.02475e-06
4.53975e-06
-3.04746e-06
7.36798e-05
-3.67813e-06
4.59234e-06
-3.89423e-06
8.88217e-05
3.72699e-06
-4.59211e-06
0.000100417
2.08463e-06
-5.0944e-06
0.000108226
3.19032e-10
-5.35717e-06
0.000112144
-2.08402e-06
-5.35713e-06
0.000112144
-3.72646e-06
-5.09428e-06
0.000108226
-4.5919e-06
-4.59194e-06
0.000100418
-4.53943e-06
-3.89403e-06
8.88221e-05
-3.04725e-06
7.36803e-05
-3.67792e-06
3.8872e-06
-3.09602e-06
6.42535e-05
-3.20349e-06
3.89425e-06
-3.88722e-06
7.80508e-05
3.14462e-06
-4.53961e-06
8.88218e-05
1.75501e-06
-5.01664e-06
9.62142e-05
1.95495e-10
-5.26808e-06
9.9971e-05
-1.75464e-06
-5.26804e-06
9.99711e-05
-3.14429e-06
-5.01654e-06
9.62144e-05
-3.89398e-06
-4.53946e-06
8.88221e-05
-3.887e-06
-3.88705e-06
7.80512e-05
-3.09584e-06
6.42539e-05
-3.20336e-06
3.09587e-06
5.28367e-05
-2.63732e-06
-2.63722e-06
3.0473e-06
6.42536e-05
-3.20352e-06
2.44461e-06
7.368e-05
-3.67806e-06
1.36141e-06
8.03882e-05
-4.02484e-06
7.15078e-11
8.38648e-05
-4.20707e-06
-1.36126e-06
8.38649e-05
-4.20704e-06
-2.44449e-06
8.03884e-05
-4.02476e-06
-3.0472e-06
7.36803e-05
-3.67795e-06
-3.09579e-06
6.42539e-05
-3.20339e-06
5.2837e-05
-2.63716e-06
-2.63719e-06
1.58209e-06
1.58201e-06
5.23379e-05
-1.33275e-06
-1.3327e-06
1.5793e-06
2.01911e-06
6.38726e-05
-1.63555e-06
1.28188e-06
2.39154e-06
7.34817e-05
-1.89613e-06
7.19333e-07
2.66945e-06
8.037e-05
-2.08911e-06
-6.84913e-11
2.81769e-06
8.39573e-05
-2.19127e-06
-7.19462e-07
2.81768e-06
8.39573e-05
-2.19125e-06
-1.28198e-06
2.66941e-06
8.03701e-05
-2.08907e-06
-1.57938e-06
2.39147e-06
7.34819e-05
-1.89608e-06
-1.58213e-06
2.01904e-06
6.38728e-05
-1.63548e-06
1.58194e-06
5.23381e-05
-1.33276e-06
-1.33264e-06
2.01919e-06
1.57919e-06
6.38726e-05
-1.6356e-06
2.06034e-06
2.06024e-06
7.79683e-05
1.68846e-06
2.47181e-06
8.91131e-05
9.51254e-07
2.77567e-06
9.68448e-05
2.91215e-11
2.93706e-06
0.000100802
-9.51197e-07
2.93705e-06
0.000100802
-1.68841e-06
2.77564e-06
9.68449e-05
-2.06029e-06
2.47177e-06
8.91133e-05
-2.01914e-06
2.0602e-06
7.79686e-05
1.57915e-06
6.38729e-05
-1.63555e-06
2.3916e-06
1.28175e-06
7.34817e-05
-1.89617e-06
2.47191e-06
1.68834e-06
8.91131e-05
2.04051e-06
2.0404e-06
0.00010128
1.15368e-06
2.29899e-06
0.000109589
1.52582e-10
2.43588e-06
0.000113798
-1.1534e-06
2.43588e-06
0.000113798
-2.04026e-06
2.29899e-06
0.000109589
-2.47169e-06
2.04041e-06
0.00010128
-2.39145e-06
1.68835e-06
8.91134e-05
1.28176e-06
7.34821e-05
-1.89606e-06
2.6695e-06
7.19188e-07
8.037e-05
-2.08914e-06
2.77574e-06
9.51121e-07
9.68448e-05
2.29908e-06
1.15357e-06
0.000109589
1.30205e-06
1.30196e-06
0.000118227
2.65389e-10
1.38037e-06
0.000122578
-1.30155e-06
1.38039e-06
0.000122578
-2.29863e-06
1.30199e-06
0.000118227
-2.77538e-06
1.15362e-06
0.000109589
-2.66925e-06
9.51189e-07
9.68452e-05
7.19265e-07
8.03705e-05
-2.08898e-06
2.81774e-06
-2.24462e-10
8.39573e-05
-2.19129e-06
2.93711e-06
-1.13926e-10
0.000100802
2.43595e-06
3.01028e-11
0.000113798
1.38045e-06
1.66062e-10
0.000122578
3.42039e-10
2.61927e-10
0.000126989
-1.3798e-06
2.82866e-10
0.000126989
-2.43538e-06
2.40828e-10
0.000122578
-2.93666e-06
1.39858e-10
0.000113799
-2.81742e-06
2.63812e-11
0.000100803
-6.53019e-11
8.39578e-05
-2.19109e-06
2.81772e-06
-7.19619e-07
8.39573e-05
-2.19127e-06
2.93709e-06
-9.5134e-07
0.000100802
2.43594e-06
-1.15352e-06
0.000113798
1.38046e-06
-1.30165e-06
0.000122578
3.54522e-10
-1.37989e-06
0.000126989
-1.37977e-06
-1.37985e-06
0.00012699
-2.43534e-06
-1.30154e-06
0.000122578
-2.93662e-06
-1.15336e-06
0.000113799
-2.81738e-06
-9.51147e-07
0.000100803
-7.19409e-07
8.39579e-05
-2.19107e-06
2.66945e-06
-1.28213e-06
8.03701e-05
-2.08909e-06
2.77569e-06
-1.68854e-06
9.68449e-05
2.29905e-06
-2.04037e-06
0.000109589
1.30206e-06
-2.29872e-06
0.000118227
3.12528e-10
-2.43546e-06
0.000122578
-1.30146e-06
-2.43541e-06
0.000122578
-2.29853e-06
-2.2986e-06
0.000118227
-2.77528e-06
-2.04019e-06
0.00010959
-2.66915e-06
-1.68832e-06
9.68455e-05
-1.28189e-06
8.03707e-05
-2.08891e-06
2.39152e-06
-1.5795e-06
7.34818e-05
-1.8961e-06
2.47183e-06
-2.0604e-06
8.91132e-05
2.04048e-06
-2.47179e-06
0.00010128
1.1537e-06
-2.77547e-06
0.000109589
2.24335e-10
-2.93672e-06
0.000113799
-1.15327e-06
-2.93668e-06
0.000113799
-2.0401e-06
-2.77534e-06
0.00010959
-2.47153e-06
-2.4716e-06
0.000101281
-2.39131e-06
-2.06018e-06
8.91138e-05
-1.57927e-06
7.34823e-05
-1.89596e-06
2.0191e-06
-1.58222e-06
6.38727e-05
-1.63551e-06
2.06026e-06
-2.01923e-06
7.79685e-05
1.68842e-06
-2.39152e-06
8.91134e-05
9.51279e-07
-2.6693e-06
9.68452e-05
1.17872e-10
-2.81746e-06
0.000100803
-9.51056e-07
-2.81743e-06
0.000100803
-1.68823e-06
-2.6692e-06
9.68455e-05
-2.06011e-06
-2.39136e-06
8.91138e-05
-2.01899e-06
-2.01905e-06
7.7969e-05
-1.58203e-06
6.38731e-05
-1.63544e-06
1.58199e-06
5.2338e-05
-1.33283e-06
-1.33268e-06
1.57922e-06
6.38728e-05
-1.63561e-06
1.28184e-06
7.3482e-05
-1.89611e-06
7.19352e-07
8.03704e-05
-2.08902e-06
1.32957e-11
8.39578e-05
-2.19113e-06
-7.19323e-07
8.39579e-05
-2.1911e-06
-1.28181e-06
8.03707e-05
-2.08894e-06
-1.57921e-06
7.34823e-05
-1.89601e-06
-1.58198e-06
6.38731e-05
-1.63549e-06
5.23384e-05
-1.33267e-06
-1.3327e-06
8.38163e-07
8.38075e-07
5.20611e-05
-6.99744e-07
-6.99689e-07
8.42456e-07
1.07335e-06
6.36553e-05
-8.60329e-07
6.87743e-07
1.27655e-06
7.33591e-05
-9.99223e-07
3.87377e-07
1.43001e-06
8.03431e-05
-1.10274e-06
-8.31107e-11
1.51251e-06
8.399e-05
-1.15779e-06
-3.87535e-07
1.5125e-06
8.399e-05
-1.15778e-06
-6.87874e-07
1.42999e-06
8.03432e-05
-1.10273e-06
-8.42554e-07
1.27652e-06
7.33592e-05
-9.992e-07
-8.3822e-07
1.07333e-06
6.36554e-05
-8.60294e-07
8.3805e-07
5.20613e-05
-6.9977e-07
-6.99668e-07
1.07344e-06
8.42334e-07
6.36553e-05
-8.60384e-07
1.1056e-06
1.10547e-06
7.7904e-05
9.13133e-07
1.33502e-06
8.9247e-05
5.17094e-07
1.50722e-06
9.71636e-05
-4.0798e-12
1.59961e-06
0.000101232
-5.17102e-07
1.59961e-06
0.000101232
-9.1314e-07
1.50722e-06
9.71637e-05
-1.10559e-06
1.33502e-06
8.92472e-05
-1.07343e-06
1.10548e-06
7.79043e-05
8.42342e-07
6.36555e-05
-8.60361e-07
1.27663e-06
6.87593e-07
7.33591e-05
-9.99274e-07
1.33514e-06
9.12988e-07
8.92471e-05
1.1129e-06
1.11276e-06
0.000101724
6.33256e-07
1.2623e-06
0.000110313
1.02578e-10
1.34241e-06
0.000114688
-6.33061e-07
1.34242e-06
0.000114689
-1.11273e-06
1.26233e-06
0.000110314
-1.33499e-06
1.11281e-06
0.000101725
-1.27653e-06
9.13045e-07
8.92474e-05
6.87651e-07
7.33595e-05
-9.99205e-07
1.43008e-06
3.87207e-07
8.03431e-05
-1.10279e-06
1.50732e-06
5.16927e-07
9.71636e-05
1.26242e-06
6.33099e-07
0.000110313
7.2017e-07
7.20033e-07
0.000119311
2.06554e-10
7.66575e-07
0.000123874
-7.19776e-07
7.66597e-07
0.000123874
-1.26207e-06
7.20093e-07
0.000119311
-1.50704e-06
6.33195e-07
0.000110314
-1.42989e-06
5.17041e-07
9.71641e-05
3.87327e-07
8.03436e-05
-1.10267e-06
1.51257e-06
-2.66813e-10
8.399e-05
-1.15783e-06
1.5997e-06
-1.83702e-10
0.000101232
1.34251e-06
-6.13192e-11
0.000114688
7.66694e-07
6.23907e-11
0.000123874
2.80896e-10
1.56418e-10
0.000128522
-7.66164e-07
1.84972e-10
0.000128522
-1.34205e-06
1.58186e-10
0.000123874
-1.59933e-06
8.01413e-11
0.000114689
-1.51232e-06
-7.55196e-12
0.000101233
-7.35571e-11
8.39906e-05
-1.15767e-06
1.51256e-06
-3.87719e-07
8.399e-05
-1.15782e-06
1.59969e-06
-5.17279e-07
0.000101232
1.34251e-06
-6.33224e-07
0.000114689
7.66708e-07
-7.19921e-07
0.000123874
2.98387e-10
-7.66292e-07
0.000128522
-7.66131e-07
-7.66249e-07
0.000128522
-1.34201e-06
-7.19799e-07
0.000123874
-1.59929e-06
-6.33041e-07
0.000114689
-1.51228e-06
-5.17064e-07
0.000101233
-3.87489e-07
8.39907e-05
-1.15765e-06
1.43005e-06
-6.8804e-07
8.03431e-05
-1.10276e-06
1.50729e-06
-9.13303e-07
9.71636e-05
1.26242e-06
-1.11288e-06
0.000110314
7.20199e-07
-1.26221e-06
0.000119311
2.6678e-10
-1.34217e-06
0.000123874
-7.19683e-07
-1.34212e-06
0.000123874
-1.26197e-06
-1.26208e-06
0.000119312
-1.50695e-06
-1.11269e-06
0.000110314
-1.4298e-06
-9.1307e-07
9.71643e-05
-6.87802e-07
8.03438e-05
-1.10261e-06
1.27659e-06
-8.42698e-07
7.33591e-05
-9.99237e-07
1.3351e-06
-1.10573e-06
8.92471e-05
1.11291e-06
-1.33512e-06
0.000101725
6.33297e-07
-1.50716e-06
0.000110314
1.93862e-10
-1.59943e-06
0.000114689
-6.32929e-07
-1.59938e-06
0.000114689
-1.11258e-06
-1.50703e-06
0.000110314
-1.33485e-06
-1.33494e-06
0.000101725
-1.27641e-06
-1.10551e-06
8.92478e-05
-8.42479e-07
7.33597e-05
-9.99124e-07
1.07339e-06
-8.38334e-07
6.36553e-05
-8.60338e-07
1.10556e-06
-1.07354e-06
7.79041e-05
9.13139e-07
-1.27663e-06
8.92473e-05
5.1715e-07
-1.42997e-06
9.7164e-05
1.04513e-10
-1.51239e-06
0.000101233
-5.16954e-07
-1.51235e-06
0.000101233
-9.12971e-07
-1.42987e-06
9.71643e-05
-1.10543e-06
-1.27648e-06
8.92478e-05
-1.0733e-06
-1.07337e-06
7.79047e-05
-8.38158e-07
6.36558e-05
-8.60281e-07
8.38113e-07
5.20611e-05
-6.9985e-07
-6.99711e-07
8.4242e-07
6.36554e-05
-8.60436e-07
6.87739e-07
7.33594e-05
-9.99269e-07
3.87426e-07
8.03435e-05
-1.10273e-06
1.50003e-11
8.39905e-05
-1.15773e-06
-3.87395e-07
8.39906e-05
-1.1577e-06
-6.87715e-07
8.03438e-05
-1.10266e-06
-8.42405e-07
7.33597e-05
-9.99175e-07
-8.38101e-07
6.36558e-05
-8.60328e-07
5.20616e-05
-6.99703e-07
-6.99742e-07
4.3239e-07
4.32308e-07
5.19167e-05
-3.60141e-07
-3.6009e-07
4.36522e-07
5.56646e-07
6.35387e-05
-4.44173e-07
3.57838e-07
6.65391e-07
7.32899e-05
-5.17508e-07
2.02138e-07
7.48209e-07
8.0323e-05
-5.72422e-07
-4.43254e-11
7.92965e-07
8.40009e-05
-6.01698e-07
-2.02222e-07
7.92966e-07
8.40009e-05
-6.01696e-07
-3.57906e-07
7.48209e-07
8.03231e-05
-5.72416e-07
-4.3657e-07
6.65389e-07
7.329e-05
-5.175e-07
-4.3241e-07
5.56645e-07
6.35388e-05
-4.44156e-07
4.32302e-07
5.19168e-05
-3.60146e-07
-3.60083e-07
5.56733e-07
4.36406e-07
6.35387e-05
-4.44227e-07
5.76996e-07
5.7687e-07
7.78636e-05
4.79244e-07
7.01337e-07
8.93088e-05
2.72449e-07
7.95789e-07
9.73228e-05
3.07496e-11
8.46834e-07
0.000101451
-2.7239e-07
8.46838e-07
0.000101451
-4.79192e-07
7.95805e-07
9.73229e-05
-5.7694e-07
7.01367e-07
8.9309e-05
-5.56685e-07
5.76905e-07
7.78637e-05
4.36434e-07
6.35389e-05
-4.44182e-07
6.65473e-07
3.57693e-07
7.32899e-05
-5.17559e-07
7.01459e-07
4.79099e-07
8.93088e-05
5.88772e-07
5.88626e-07
0.00010195
3.36619e-07
6.71741e-07
0.00011069
1.29907e-10
7.16653e-07
0.000115155
-3.36369e-07
7.16669e-07
0.000115155
-5.88548e-07
6.71785e-07
0.00011069
-7.01274e-07
5.88695e-07
0.00010195
-6.65339e-07
4.79179e-07
8.93092e-05
3.5777e-07
7.32903e-05
-5.17472e-07
7.48285e-07
2.01973e-07
8.0323e-05
-5.72467e-07
7.95894e-07
2.72279e-07
9.73228e-05
6.71875e-07
3.36454e-07
0.00011069
3.85359e-07
3.85209e-07
0.000119884
2.28688e-10
4.11564e-07
0.000124564
-3.8492e-07
4.11591e-07
0.000124564
-6.71486e-07
3.85282e-07
0.000119884
-7.95584e-07
3.36568e-07
0.00011069