/*--------------------------------*- C++ -*----------------------------------*\
| =========                 |                                                 |
| \\      /  F ield         | OpenFOAM: The Open Source CFD Toolbox           |
|  \\    /   O peration     | Version:  2412                                  |
|   \\  /    A nd           | Website:  www.openfoam.com                      |
|    \\/     M anipulation  |                                                 |
\*---------------------------------------------------------------------------*/
FoamFile
{
    version     2.0;
    format      ascii;
    arch        "LSB;label=32;scalar=64";
    class       volVectorField;
    location    "0.1";
    object      U;
}
// * * * * * * * * * * * * * * * * * * * * * * * * * * * * * * * * * * * * * //

dimensions      [0 1 -1 0 0 0 0];

internalField   nonuniform List<vector> 
15000
(
(0.228913 0.228913 1.09641)
(0.185947 0.24221 1.11728)
(0.134991 0.248642 1.12521)
(0.0815439 0.25181 1.12745)
(0.0272539 0.25307 1.12771)
(-0.0272534 0.25307 1.12771)
(-0.0815434 0.25181 1.12745)
(-0.134991 0.248642 1.12521)
(-0.185947 0.24221 1.11728)
(-0.228912 0.228913 1.09641)
(0.24221 0.185947 1.11728)
(0.191442 0.191442 1.13034)
(0.135775 0.193546 1.13005)
(0.0807978 0.194096 1.12631)
(0.0268024 0.194078 1.12357)
(-0.0268018 0.194078 1.12357)
(-0.0807971 0.194096 1.12631)
(-0.135774 0.193546 1.13005)
(-0.191442 0.191442 1.13034)
(-0.242209 0.185947 1.11728)
(0.248642 0.134991 1.12521)
(0.193546 0.135775 1.13005)
(0.13555 0.13555 1.1239)
(0.0798414 0.13489 1.11644)
(0.0263335 0.134359 1.11191)
(-0.0263328 0.134359 1.11191)
(-0.0798407 0.13489 1.11644)
(-0.135549 0.13555 1.1239)
(-0.193546 0.135775 1.13005)
(-0.248641 0.134991 1.12521)
(0.25181 0.0815438 1.12745)
(0.194096 0.0807978 1.12631)
(0.13489 0.0798414 1.11644)
(0.0789232 0.0789232 1.10682)
(0.0259314 0.0783543 1.10133)
(-0.0259306 0.0783543 1.10133)
(-0.0789225 0.0789232 1.10682)
(-0.134889 0.0798414 1.11644)
(-0.194095 0.0807977 1.12631)
(-0.25181 0.0815438 1.12745)
(0.25307 0.0272539 1.12771)
(0.194078 0.0268024 1.12357)
(0.134359 0.0263335 1.11191)
(0.0783543 0.0259314 1.10133)
(0.0256962 0.0256962 1.09542)
(-0.0256954 0.0256962 1.09542)
(-0.0783535 0.0259314 1.10133)
(-0.134358 0.0263335 1.11191)
(-0.194078 0.0268024 1.12357)
(-0.253069 0.0272539 1.12771)
(0.25307 -0.0272534 1.12771)
(0.194078 -0.0268017 1.12357)
(0.134359 -0.0263328 1.11191)
(0.0783543 -0.0259306 1.10133)
(0.0256962 -0.0256954 1.09542)
(-0.0256954 -0.0256954 1.09542)
(-0.0783535 -0.0259306 1.10133)
(-0.134358 -0.0263328 1.11191)
(-0.194078 -0.0268017 1.12357)
(-0.253069 -0.0272533 1.12771)
(0.25181 -0.0815434 1.12745)
(0.194096 -0.0807971 1.12631)
(0.13489 -0.0798407 1.11644)
(0.0789232 -0.0789225 1.10682)
(0.0259314 -0.0783535 1.10133)
(-0.0259306 -0.0783535 1.10133)
(-0.0789224 -0.0789224 1.10682)
(-0.134889 -0.0798406 1.11644)
(-0.194095 -0.0807971 1.12631)
(-0.25181 -0.0815433 1.12745)
(0.248641 -0.134991 1.12521)
(0.193546 -0.135774 1.13005)
(0.13555 -0.135549 1.1239)
(0.0798414 -0.134889 1.11644)
(0.0263335 -0.134358 1.11191)
(-0.0263328 -0.134358 1.11191)
(-0.0798406 -0.134889 1.11644)
(-0.135549 -0.135549 1.1239)
(-0.193546 -0.135774 1.13005)
(-0.248641 -0.134991 1.12521)
(0.24221 -0.185947 1.11728)
(0.191442 -0.191442 1.13034)
(0.135775 -0.193546 1.13005)
(0.0807977 -0.194095 1.12631)
(0.0268024 -0.194078 1.12357)
(-0.0268017 -0.194078 1.12357)
(-0.0807971 -0.194095 1.12631)
(-0.135774 -0.193546 1.13005)
(-0.191442 -0.191442 1.13034)
(-0.242209 -0.185947 1.11728)
(0.228913 -0.228912 1.09641)
(0.185947 -0.242209 1.11728)
(0.134991 -0.248641 1.12521)
(0.0815438 -0.25181 1.12745)
(0.0272539 -0.253069 1.12771)
(-0.0272533 -0.253069 1.12771)
(-0.0815433 -0.25181 1.12745)
(-0.134991 -0.248641 1.12521)
(-0.185947 -0.242209 1.11728)
(-0.228912 -0.228912 1.09641)
(0.119431 0.119431 1.276)
(0.105302 0.142192 1.33637)
(0.0822706 0.160318 1.37029)
(0.0523218 0.172844 1.3878)
(0.0179343 0.179199 1.39498)
(-0.0179327 0.179199 1.39498)
(-0.0523201 0.172844 1.3878)
(-0.0822691 0.160318 1.37029)
(-0.1053 0.142192 1.33637)
(-0.11943 0.119431 1.276)
(0.142192 0.105302 1.33637)
(0.125596 0.125596 1.3917)
(0.0974102 0.141601 1.41408)
(0.0614384 0.152417 1.42111)
(0.0209585 0.157829 1.42243)
(-0.0209562 0.157828 1.42243)
(-0.0614361 0.152417 1.42111)
(-0.0974081 0.1416 1.41408)
(-0.125595 0.125596 1.3917)
(-0.14219 0.105301 1.33637)
(0.160318 0.0822706 1.37029)
(0.141601 0.0974102 1.41408)
(0.109217 0.109218 1.42563)
(0.0684538 0.117074 1.42436)
(0.0232683 0.120969 1.42124)
(-0.0232653 0.120969 1.42124)
(-0.0684509 0.117074 1.42436)
(-0.109215 0.109217 1.42563)
(-0.141598 0.0974101 1.41408)
(-0.160316 0.0822705 1.37029)
(0.172844 0.0523218 1.3878)
(0.152417 0.0614385 1.42111)
(0.117074 0.0684539 1.42436)
(0.073074 0.0730741 1.41727)
(0.0247821 0.0753528 1.41118)
(-0.0247786 0.0753528 1.41118)
(-0.0730707 0.0730741 1.41727)
(-0.117071 0.0684538 1.42436)
(-0.152414 0.0614384 1.42111)
(-0.172842 0.0523217 1.3878)
(0.179199 0.0179344 1.39498)
(0.157828 0.0209586 1.42243)
(0.120969 0.0232684 1.42124)
(0.0753527 0.0247822 1.41118)
(0.0255268 0.0255269 1.40359)
(-0.025523 0.0255269 1.40359)
(-0.0753491 0.0247822 1.41118)
(-0.120966 0.0232684 1.42124)
(-0.157826 0.0209586 1.42243)
(-0.179197 0.0179344 1.39498)
(0.179199 -0.0179326 1.39498)
(0.157828 -0.0209561 1.42243)
(0.120969 -0.0232651 1.42124)
(0.0753526 -0.0247784 1.41118)
(0.0255268 -0.0255228 1.40359)
(-0.025523 -0.0255228 1.40359)
(-0.0753491 -0.0247784 1.41118)
(-0.120966 -0.0232651 1.42124)
(-0.157826 -0.020956 1.42243)
(-0.179197 -0.0179326 1.39498)
(0.172844 -0.0523201 1.3878)
(0.152417 -0.0614361 1.42111)
(0.117074 -0.0684507 1.42436)
(0.0730739 -0.0730705 1.41727)
(0.0247821 -0.0753489 1.41118)
(-0.0247785 -0.0753489 1.41118)
(-0.0730706 -0.0730705 1.41727)
(-0.117071 -0.0684507 1.42436)
(-0.152414 -0.061436 1.42111)
(-0.172842 -0.05232 1.3878)
(0.160318 -0.0822691 1.37029)
(0.1416 -0.097408 1.41408)
(0.109217 -0.109215 1.42563)
(0.0684537 -0.117071 1.42436)
(0.0232683 -0.120966 1.42124)
(-0.0232652 -0.120966 1.42124)
(-0.0684508 -0.11707 1.42436)
(-0.109215 -0.109215 1.42564)
(-0.141598 -0.097408 1.41408)
(-0.160316 -0.082269 1.37029)
(0.142191 -0.1053 1.33637)
(0.125596 -0.125595 1.3917)
(0.09741 -0.141598 1.41408)
(0.0614383 -0.152414 1.42111)
(0.0209585 -0.157826 1.42243)
(-0.0209561 -0.157826 1.42243)
(-0.0614361 -0.152414 1.42111)
(-0.097408 -0.141598 1.41408)
(-0.125595 -0.125595 1.3917)
(-0.14219 -0.1053 1.33638)
(0.119431 -0.11943 1.276)
(0.105301 -0.14219 1.33637)
(0.0822704 -0.160316 1.37029)
(0.0523217 -0.172842 1.3878)
(0.0179343 -0.179197 1.39498)
(-0.0179326 -0.179197 1.39498)
(-0.0523201 -0.172842 1.3878)
(-0.082269 -0.160316 1.37029)
(-0.1053 -0.14219 1.33638)
(-0.11943 -0.11943 1.276)
(0.0691261 0.0691261 1.17752)
(0.0662802 0.0860048 1.285)
(0.0542466 0.100051 1.35877)
(0.0355406 0.110369 1.40444)
(0.0123653 0.115819 1.42606)
(-0.012363 0.115819 1.42606)
(-0.0355385 0.110369 1.40444)
(-0.0542446 0.10005 1.35877)
(-0.0662785 0.0860044 1.28501)
(-0.0691248 0.0691257 1.17752)
(0.0860048 0.0662802 1.285)
(0.0829243 0.0829243 1.40364)
(0.0679873 0.0968567 1.47467)
(0.0444523 0.106923 1.51404)
(0.0154355 0.112181 1.53138)
(-0.0154319 0.112181 1.53138)
(-0.0444489 0.106923 1.51405)
(-0.0679842 0.0968564 1.47467)
(-0.0829217 0.082924 1.40365)
(-0.0860029 0.0662798 1.28501)
(0.100051 0.0542466 1.35877)
(0.0968566 0.0679873 1.47467)
(0.0794739 0.079474 1.53952)
(0.0518473 0.0876286 1.57247)
(0.0179737 0.0918455 1.58591)
(-0.0179688 0.0918455 1.58591)
(-0.0518428 0.0876285 1.57247)
(-0.0794699 0.0794738 1.53952)
(-0.0968533 0.0679871 1.47467)
(-0.100048 0.0542463 1.35877)
(0.110369 0.0355406 1.40444)
(0.106923 0.0444524 1.51404)
(0.0876285 0.0518475 1.57247)
(0.0570418 0.057042 1.60009)
(0.0197491 0.0597132 1.61052)
(-0.0197433 0.0597132 1.61052)
(-0.0570363 0.0570419 1.60009)
(-0.0876237 0.0518474 1.57247)
(-0.106919 0.0444523 1.51405)
(-0.110366 0.0355405 1.40444)
(0.115819 0.0123653 1.42606)
(0.112181 0.0154356 1.53138)
(0.0918453 0.0179738 1.58591)
(0.059713 0.0197494 1.61052)
(0.0206601 0.0206604 1.61932)
(-0.0206537 0.0206604 1.61932)
(-0.059707 0.0197494 1.61052)
(-0.0918401 0.0179738 1.58591)
(-0.112176 0.0154356 1.53139)
(-0.115816 0.0123653 1.42607)
(0.115819 -0.012363 1.42606)
(0.112181 -0.0154318 1.53138)
(0.0918452 -0.0179687 1.58591)
(0.0597129 -0.0197431 1.61052)
(0.0206601 -0.0206534 1.61932)
(-0.0206537 -0.0206534 1.61932)
(-0.059707 -0.019743 1.61052)
(-0.09184 -0.0179686 1.58591)
(-0.112176 -0.0154317 1.53139)
(-0.115816 -0.0123629 1.42607)
(0.110369 -0.0355385 1.40444)
(0.106923 -0.0444489 1.51405)
(0.0876283 -0.0518426 1.57247)
(0.0570417 -0.0570361 1.60009)
(0.0197491 -0.0597067 1.61052)
(-0.0197433 -0.0597067 1.61052)
(-0.0570362 -0.057036 1.60009)
(-0.0876235 -0.0518425 1.57247)
(-0.106919 -0.0444487 1.51405)
(-0.110366 -0.0355383 1.40444)
(0.10005 -0.0542447 1.35877)
(0.0968563 -0.0679842 1.47467)
(0.0794737 -0.0794697 1.53952)
(0.0518472 -0.0876234 1.57247)
(0.0179736 -0.0918398 1.58591)
(-0.0179688 -0.0918398 1.58591)
(-0.0518426 -0.0876233 1.57247)
(-0.0794696 -0.0794695 1.53952)
(-0.096853 -0.0679839 1.47467)
(-0.100048 -0.0542444 1.35877)
(0.0860044 -0.0662786 1.28501)
(0.0829239 -0.0829217 1.40365)
(0.067987 -0.0968531 1.47467)
(0.0444522 -0.106919 1.51405)
(0.0154355 -0.112176 1.53139)
(-0.0154318 -0.112176 1.53139)
(-0.0444487 -0.106919 1.51405)
(-0.067984 -0.0968529 1.47467)
(-0.0829214 -0.0829214 1.40365)
(-0.0860025 -0.0662782 1.28501)
(0.0691256 -0.0691248 1.17752)
(0.0662798 -0.0860028 1.28501)
(0.0542463 -0.100048 1.35877)
(0.0355405 -0.110366 1.40444)
(0.0123653 -0.115815 1.42607)
(-0.0123629 -0.115815 1.42607)
(-0.0355382 -0.110366 1.40444)
(-0.0542443 -0.100048 1.35877)
(-0.0662782 -0.0860026 1.28501)
(-0.0691244 -0.0691245 1.17753)
(0.0331301 0.0331299 1.16105)
(0.0329969 0.0431649 1.28653)
(0.0279618 0.052117 1.37806)
(0.018768 0.0589597 1.4376)
(0.00660924 0.0626587 1.46676)
(-0.0066077 0.0626586 1.46676)
(-0.0187665 0.0589593 1.4376)
(-0.0279604 0.0521165 1.37806)
(-0.0329958 0.0431643 1.28653)
(-0.0331292 0.0331293 1.16106)
(0.043165 0.0329967 1.28653)
(0.0437955 0.0437953 1.43453)
(0.0374447 0.0534616 1.53209)
(0.0251714 0.0607535 1.5911)
(0.00886091 0.0646641 1.61878)
(-0.00885779 0.064664 1.61879)
(-0.0251684 0.0607533 1.5911)
(-0.0374421 0.0534612 1.5321)
(-0.0437933 0.0437949 1.43454)
(-0.0431634 0.0329961 1.28653)
(0.052117 0.0279615 1.37806)
(0.0534617 0.0374445 1.53209)
(0.0459039 0.0459038 1.63009)
(0.0308528 0.0521941 1.68689)
(0.0108545 0.0555418 1.71268)
(-0.0108497 0.0555418 1.71268)
(-0.0308483 0.0521939 1.6869)
(-0.0458999 0.0459036 1.6301)
(-0.0534585 0.0374443 1.5321)
(-0.0521147 0.0279612 1.37806)
(0.0589597 0.0187677 1.4376)
(0.0607535 0.0251713 1.5911)
(0.052194 0.0308528 1.68689)
(0.0350435 0.0350436 1.74097)
(0.0123206 0.0372644 1.76496)
(-0.0123145 0.0372644 1.76496)
(-0.0350378 0.0350436 1.74097)
(-0.052189 0.0308527 1.6869)
(-0.0607495 0.0251712 1.59111)
(-0.0589567 0.0187676 1.43761)
(0.0626586 0.00660899 1.46676)
(0.064664 0.0088608 1.61878)
(0.0555417 0.0108545 1.71268)
(0.0372642 0.0123207 1.76496)
(0.0130961 0.0130963 1.78787)
(-0.0130892 0.0130963 1.78787)
(-0.0372578 0.0123208 1.76496)
(-0.0555361 0.0108546 1.71269)
(-0.0646595 0.00886093 1.61879)
(-0.0626553 0.00660917 1.46676)
(0.0626585 -0.00660796 1.46676)
(0.0646639 -0.00885792 1.61879)
(0.0555416 -0.0108497 1.71268)
(0.0372642 -0.0123144 1.76496)
(0.0130961 -0.0130891 1.78787)
(-0.0130892 -0.013089 1.78787)
(-0.0372577 -0.0123142 1.76496)
(-0.055536 -0.0108494 1.71269)
(-0.0646594 -0.00885755 1.61879)
(-0.0626552 -0.00660752 1.46676)
(0.0589592 -0.0187668 1.4376)
(0.0607531 -0.0251686 1.5911)
(0.0521938 -0.0308483 1.6869)
(0.0350434 -0.0350377 1.74097)
(0.0123206 -0.0372576 1.76496)
(-0.0123143 -0.0372575 1.76496)
(-0.0350375 -0.0350375 1.74097)
(-0.0521887 -0.0308479 1.6869)
(-0.0607491 -0.025168 1.59111)
(-0.0589563 -0.0187662 1.43761)
(0.0521164 -0.0279607 1.37806)
(0.0534611 -0.0374422 1.5321)
(0.0459035 -0.0459 1.6301)
(0.0308526 -0.052189 1.6869)
(0.0108545 -0.055536 1.71269)
(-0.0108495 -0.0555359 1.71269)
(-0.0308479 -0.0521887 1.6869)
(-0.0458994 -0.0458995 1.6301)
(-0.0534579 -0.0374416 1.5321)
(-0.0521141 -0.02796 1.37807)
(0.0431642 -0.032996 1.28653)
(0.0437948 -0.0437935 1.43454)
(0.0374443 -0.0534585 1.5321)
(0.0251712 -0.0607494 1.59111)
(0.00886102 -0.0646594 1.61879)
(-0.00885745 -0.0646593 1.61879)
(-0.0251679 -0.060749 1.59111)
(-0.0374415 -0.0534579 1.5321)
(-0.0437926 -0.0437928 1.43454)
(-0.0431626 -0.0329952 1.28654)
(0.0331293 -0.0331293 1.16106)
(0.0329962 -0.0431634 1.28653)
(0.0279613 -0.0521147 1.37806)
(0.0187678 -0.0589566 1.43761)
(0.00660934 -0.0626553 1.46676)
(-0.00660734 -0.0626551 1.46676)
(-0.018766 -0.0589563 1.43761)
(-0.0279598 -0.0521142 1.37807)
(-0.032995 -0.0431628 1.28654)
(-0.0331284 -0.0331286 1.16106)
(0.0173664 0.017366 1.1297)
(0.0178926 0.0228487 1.26489)
(0.0154713 0.0278679 1.36694)
(0.0105269 0.0318085 1.43518)
(0.00373307 0.0339751 1.4692)
(-0.00373292 0.033975 1.4692)
(-0.0105267 0.0318081 1.43518)
(-0.0154711 0.0278673 1.36695)
(-0.0178924 0.022848 1.26489)
(-0.0173662 0.0173653 1.12971)
(0.0228491 0.0178921 1.26489)
(0.0240463 0.0240459 1.42951)
(0.0210877 0.0297591 1.54364)
(0.0144233 0.0342062 1.61574)
(0.00512216 0.0366376 1.65059)
(-0.0051205 0.0366375 1.65059)
(-0.0144217 0.034206 1.61574)
(-0.0210863 0.0297586 1.54364)
(-0.0240452 0.0240453 1.42951)
(-0.0228482 0.0178915 1.26489)
(0.0278682 0.0154707 1.36694)
(0.0297594 0.0210872 1.54364)
(0.0263151 0.0263148 1.66344)
(0.0180427 0.0303349 1.73708)
(0.00641198 0.032519 1.77197)
(-0.00640863 0.0325189 1.77198)
(-0.0180396 0.0303348 1.73708)
(-0.0263124 0.0263146 1.66344)
(-0.0297572 0.021087 1.54364)
(-0.0278666 0.0154705 1.36695)
(0.0318087 0.0105263 1.43518)
(0.0342065 0.0144228 1.61574)
(0.0303352 0.0180424 1.73708)
(0.0208083 0.0208081 1.81064)
(0.00739542 0.0223054 1.84508)
(-0.00739062 0.0223054 1.84508)
(-0.0208038 0.0208081 1.81064)
(-0.0303313 0.0180424 1.73709)
(-0.0342034 0.0144229 1.61574)
(-0.0318064 0.0105264 1.43518)
(0.0339752 0.00373244 1.4692)
(0.0366377 0.00512167 1.65059)
(0.0325191 0.00641162 1.77197)
(0.0223055 0.00739521 1.84508)
(0.00792715 0.00792704 1.87911)
(-0.00792143 0.0079271 1.87911)
(-0.0223002 0.00739542 1.84508)
(-0.0325145 0.00641193 1.77198)
(-0.0366341 0.00512206 1.6506)
(-0.0339726 0.00373293 1.46921)
(0.033975 -0.00373357 1.4692)
(0.0366375 -0.00512102 1.65059)
(0.032519 -0.00640899 1.77198)
(0.0223055 -0.00739084 1.84508)
(0.00792719 -0.00792158 1.87911)
(-0.00792134 -0.00792146 1.87912)
(-0.0223001 -0.00739048 1.84508)
(-0.0325144 -0.00640844 1.77198)
(-0.0366339 -0.0051203 1.6506)
(-0.0339723 -0.00373274 1.46921)
(0.0318081 -0.0105274 1.43518)
(0.034206 -0.0144223 1.61574)
(0.0303349 -0.01804 1.73708)
(0.0208082 -0.0208041 1.81064)
(0.00739553 -0.0223004 1.84508)
(-0.00739031 -0.0223002 1.84508)
(-0.0208034 -0.0208036 1.81064)
(-0.0303308 -0.0180393 1.73709)
(-0.0342028 -0.0144213 1.61575)
(-0.0318058 -0.0105264 1.43519)
(0.0278673 -0.0154717 1.36695)
(0.0297587 -0.0210868 1.54364)
(0.0263147 -0.0263127 1.66344)
(0.0180426 -0.0303315 1.73709)
(0.00641215 -0.0325147 1.77198)
(-0.00640819 -0.0325145 1.77198)
(-0.018039 -0.030331 1.73709)
(-0.0263116 -0.0263119 1.66345)
(-0.0297563 -0.0210857 1.54365)
(-0.0278657 -0.0154705 1.36695)
(0.0228481 -0.0178929 1.26489)
(0.0240455 -0.0240456 1.42951)
(0.0210872 -0.0297575 1.54364)
(0.0144232 -0.0342036 1.61574)
(0.00512241 -0.0366342 1.6506)
(-0.00511995 -0.036634 1.6506)
(-0.014421 -0.034203 1.61575)
(-0.0210853 -0.0297566 1.54365)
(-0.0240441 -0.0240444 1.42952)
(-0.0228472 -0.0178916 1.2649)
(0.0173654 -0.0173665 1.1297)
(0.0178917 -0.0228485 1.26489)
(0.0154708 -0.0278667 1.36695)
(0.0105268 -0.0318065 1.43518)
(0.0037333 -0.0339727 1.46921)
(-0.00373235 -0.0339725 1.46921)
(-0.0105259 -0.031806 1.43519)
(-0.0154701 -0.0278659 1.36695)
(-0.0178913 -0.0228475 1.2649)
(-0.0173651 -0.0173655 1.12971)
(0.00879311 0.00879253 1.1179)
(0.00919098 0.0117278 1.25723)
(0.00806839 0.0144856 1.36419)
(0.00555126 0.0166867 1.4367)
(0.00197972 0.0179092 1.47321)
(-0.00198059 0.0179091 1.47321)
(-0.00555204 0.0166864 1.43671)
(-0.008069 0.0144852 1.36419)
(-0.00919143 0.0117272 1.25723)
(-0.00879334 0.00879198 1.11791)
(0.0117283 0.00919023 1.25723)
(0.0125954 0.0125947 1.42966)
(0.0112552 0.0158481 1.55226)
(0.00780149 0.0184326 1.63145)
(0.00278947 0.0198638 1.67031)
(-0.00278912 0.0198638 1.67031)
(-0.00780114 0.0184324 1.63145)
(-0.0112548 0.0158478 1.55226)
(-0.0125951 0.0125943 1.42966)
(-0.011728 0.00918987 1.25723)
(0.0144861 0.00806753 1.36419)
(0.0158487 0.0112543 1.55226)
(0.0143158 0.0143151 1.68395)
(0.00996384 0.0167254 1.76732)
(0.00356836 0.0180543 1.80765)
(-0.00356648 0.0180543 1.80765)
(-0.0099621 0.0167253 1.76732)
(-0.0143142 0.014315 1.68396)
(-0.0158475 0.0112544 1.55227)
(-0.0144852 0.00806751 1.36419)
(0.0166871 0.00555034 1.4367)
(0.0184331 0.00780066 1.63145)
(0.0167259 0.00996311 1.76732)
(0.0116595 0.0116589 1.85261)
(0.00417847 0.0125918 1.89356)
(-0.00417519 0.0125919 1.89357)
(-0.0116564 0.011659 1.85261)
(-0.0167233 0.0099634 1.76733)
(-0.0184311 0.007801 1.63146)
(-0.0166856 0.00555072 1.43671)
(0.0179094 0.00197874 1.47321)
(0.0198642 0.00278859 1.67031)
(0.0180548 0.0035676 1.80765)
(0.0125923 0.00417786 1.89356)
(0.00451387 0.00451338 1.93469)
(-0.00450966 0.0045135 1.93469)
(-0.0125884 0.00417824 1.89357)
(-0.0180515 0.00356817 1.80766)
(-0.0198616 0.0027893 1.67032)
(-0.0179076 0.00197956 1.47322)
(0.0179092 -0.0019816 1.47321)
(0.019864 -0.00279002 1.67031)
(0.0180547 -0.00356724 1.80765)
(0.0125923 -0.00417581 1.89357)
(0.00451394 -0.00451018 1.93469)
(-0.00450954 -0.00451001 1.93469)
(-0.0125882 -0.00417528 1.89357)
(-0.0180512 -0.00356642 1.80766)
(-0.0198613 -0.00278899 1.67032)
(-0.0179074 -0.00198044 1.47322)
(0.0166865 -0.00555301 1.4367)
(0.0184327 -0.00780202 1.63145)
(0.0167257 -0.00996283 1.76732)
(0.0116594 -0.011657 1.85261)
(0.00417867 -0.0125889 1.89357)
(-0.00417478 -0.0125887 1.89357)
(-0.0116559 -0.0116564 1.85262)
(-0.0167227 -0.00996186 1.76733)
(-0.0184304 -0.00780079 1.63146)
(-0.0166849 -0.00555167 1.43671)
(0.0144853 -0.00806988 1.36419)
(0.0158481 -0.0112556 1.55226)
(0.0143154 -0.0143149 1.68396)
(0.00996384 -0.0167239 1.76733)
(0.00356867 -0.0180519 1.80766)
(-0.00356589 -0.0180517 1.80766)
(-0.0099613 -0.0167232 1.76733)
(-0.0143133 -0.0143138 1.68396)
(-0.0158465 -0.0112543 1.55227)
(-0.0144843 -0.00806848 1.3642)
(0.0117273 -0.00919217 1.25723)
(0.0125947 -0.0125958 1.42966)
(0.0112548 -0.015848 1.55227)
(0.00780151 -0.0184315 1.63146)
(0.00278987 -0.019862 1.67032)
(-0.0027884 -0.0198617 1.67032)
(-0.0078002 -0.0184308 1.63146)
(-0.0112537 -0.015847 1.55227)
(-0.012594 -0.0125945 1.42967)
(-0.011727 -0.00919079 1.25724)
(0.00879216 -0.00879389 1.11791)
(0.0091902 -0.0117285 1.25723)
(0.00806795 -0.0144856 1.36419)
(0.00555122 -0.0166859 1.43671)
(0.00198009 -0.0179079 1.47322)
(-0.00197989 -0.0179077 1.47322)
(-0.00555111 -0.0166853 1.43671)
(-0.00806794 -0.0144847 1.3642)
(-0.00919031 -0.0117274 1.25724)
(-0.00879231 -0.00879274 1.11791)
(0.00464641 0.00464575 1.10957)
(0.00490736 0.0062014 1.25107)
(0.00433795 0.00767638 1.3607)
(0.00300006 0.00886568 1.4356)
(0.00107274 0.00953074 1.4735)
(-0.0010738 0.00953067 1.47351)
(-0.00300102 0.0088655 1.43561)
(-0.00433872 0.00767612 1.3607)
(-0.00490793 0.00620109 1.25107)
(-0.00464671 0.00464549 1.10957)
(0.00620204 0.00490652 1.25107)
(0.00673824 0.00673739 1.42763)
(0.00607833 0.00851423 1.55489)
(0.00424345 0.00994545 1.63808)
(0.00152306 0.0107451 1.67925)
(-0.00152312 0.0107451 1.67925)
(-0.00424349 0.00994541 1.63808)
(-0.00607834 0.00851417 1.55489)
(-0.00673817 0.00673733 1.42764)
(-0.00620192 0.00490646 1.25108)
(0.00767695 0.00433697 1.3607)
(0.00851499 0.00607736 1.55489)
(0.00778294 0.00778203 1.69325)
(0.00546521 0.00914672 1.78224)
(0.0019666 0.00990712 1.82578)
(-0.00196533 0.00990716 1.82578)
(-0.00546403 0.00914686 1.78224)
(-0.00778189 0.00778227 1.69325)
(-0.00851414 0.00607768 1.5549)
(-0.00767631 0.00433726 1.36071)
(0.00886616 0.00299898 1.4356)
(0.00994608 0.00424241 1.63808)
(0.00914749 0.00546423 1.78224)
(0.00644091 0.00644006 1.87446)
(0.00232079 0.00698316 1.91934)
(-0.00231824 0.00698329 1.91934)
(-0.00643853 0.00644039 1.87446)
(-0.00914545 0.00546477 1.78225)
(-0.00994451 0.00424305 1.63809)
(-0.00886503 0.00299965 1.43561)
(0.00953111 0.00107159 1.4735)
(0.0107456 0.00152195 1.67925)
(0.00990775 0.00196558 1.82578)
(0.00698389 0.0023199 1.91934)
(0.00251789 0.00251713 1.96479)
(-0.00251444 0.00251729 1.96479)
(-0.00698071 0.00232042 1.91935)
(-0.00990505 0.00196637 1.82579)
(-0.0107435 0.00152292 1.67926)
(-0.00952965 0.00107265 1.47351)
(0.00953096 -0.00107499 1.47351)
(0.0107455 -0.00152425 1.67925)
(0.00990771 -0.00196636 1.82578)
(0.00698395 -0.00231913 1.91934)
(0.00251799 -0.00251524 1.96479)
(-0.00251429 -0.00251502 1.9648)
(-0.00698051 -0.00231847 1.91935)
(-0.00990484 -0.00196536 1.82579)
(-0.0107433 -0.00152303 1.67926)
(-0.00952945 -0.00107364 1.47352)
(0.00886573 -0.00300215 1.4356)
(0.00994579 -0.00424458 1.63808)
(0.00914737 -0.005465 1.78224)
(0.00644101 -0.0064394 1.87446)
(0.00232108 -0.0069815 1.91935)
(-0.00231776 -0.00698124 1.91935)
(-0.00643795 -0.00643868 1.87447)
(-0.00914486 -0.00546392 1.78225)
(-0.00994389 -0.00424323 1.63809)
(-0.00886445 -0.00300071 1.43562)
(0.00767634 -0.00433973 1.3607)
(0.00851455 -0.00607932 1.55489)
(0.00778278 -0.00778278 1.69325)
(0.00546538 -0.00914625 1.78225)
(0.00196705 -0.00990575 1.82579)
(-0.00196465 -0.00990548 1.82579)
(-0.00546319 -0.00914551 1.78225)
(-0.00778099 -0.00778167 1.69326)
(-0.00851323 -0.00607797 1.5549)
(-0.00767551 -0.00433832 1.36071)
(0.00620133 -0.00490878 1.25107)
(0.00673774 -0.006739 1.42763)
(0.00607819 -0.00851487 1.55489)
(0.00424367 -0.00994515 1.63809)
(0.00152361 -0.0107441 1.67926)
(-0.00152231 -0.0107438 1.67926)
(-0.00424253 -0.00994444 1.63809)
(-0.00607732 -0.00851383 1.5549)
(-0.00673715 -0.00673774 1.42764)
(-0.00620104 -0.00490747 1.25108)
(0.00464572 -0.00464735 1.10957)
(0.00490684 -0.00620249 1.25107)
(0.00433775 -0.00767682 1.36071)
(0.00300022 -0.00886548 1.43561)
(0.00107325 -0.00953007 1.47351)
(-0.00107304 -0.00952988 1.47352)
(-0.00300009 -0.00886491 1.43562)
(-0.00433773 -0.00767599 1.36071)
(-0.00490694 -0.00620154 1.25108)
(-0.00464587 -0.00464633 1.10958)
(0.0023914 0.00239078 1.10569)
(0.00253599 0.00320471 1.24823)
(0.00225358 0.00398326 1.35918)
(0.00156513 0.00461484 1.43529)
(0.000560929 0.00496944 1.47391)
(-0.000561497 0.00496943 1.47391)
(-0.00156563 0.0046148 1.43529)
(-0.00225396 0.00398319 1.35918)
(-0.00253623 0.00320461 1.24823)
(-0.00239147 0.00239069 1.10569)
(0.00320535 0.0025352 1.24823)
(0.00350458 0.00350375 1.42683)
(0.00318342 0.00445449 1.55647)
(0.00223452 0.00522704 1.64176)
(0.000804489 0.00566118 1.68416)
(-0.000804117 0.0056612 1.68416)
(-0.00223414 0.00522712 1.64176)
(-0.00318305 0.00445462 1.55647)
(-0.0035042 0.0035039 1.42683)
(-0.00320499 0.00253532 1.24823)
(0.00398384 0.00225264 1.35918)
(0.00445527 0.00318245 1.55647)
(0.00410662 0.00410568 1.69833)
(0.00290253 0.00485305 1.79036)
(0.00104841 0.00527253 1.83566)
(-0.00104679 0.00527262 1.83566)
(-0.002901 0.00485331 1.79037)
(-0.00410526 0.00410609 1.69833)
(-0.00445416 0.00318295 1.55647)
(-0.00398301 0.00225309 1.35918)
(0.00461534 0.00156408 1.43529)
(0.0052277 0.00223346 1.64176)
(0.00485387 0.00290151 1.79036)
(0.00344285 0.00344193 1.88639)
(0.00124587 0.00374522 1.93348)
(-0.00124304 0.00374538 1.93348)
(-0.0034402 0.00344236 1.8864)
(-0.00485158 0.00290218 1.79037)
(-0.00522591 0.00223425 1.64177)
(-0.00461404 0.00156487 1.43529)
(0.00496984 0.000559808 1.47391)
(0.00566172 0.000803363 1.68416)
(0.00527323 0.00104734 1.83566)
(0.00374604 0.00124489 1.93348)
(0.00135675 0.00135589 1.98138)
(-0.00135305 0.00135607 1.98138)
(-0.0037426 0.00124548 1.93348)
(-0.0052703 0.00104822 1.83567)
(-0.00565946 0.000804423 1.68417)
(-0.00496823 0.000560929 1.47392)
(0.00496974 -0.00056265 1.47391)
(0.00566166 -0.000805261 1.68416)
(0.00527323 -0.00104787 1.83566)
(0.00374612 -0.00124402 1.93348)
(0.00135687 -0.00135393 1.98138)
(-0.00135289 -0.0013537 1.98138)
(-0.0037424 -0.00124332 1.93349)
(-0.00527011 -0.00104683 1.83567)
(-0.00565926 -0.00080401 1.68417)
(-0.00496806 -0.00056131 1.47392)
(0.00461506 -0.00156673 1.43529)
(0.00522754 -0.00223524 1.64176)
(0.00485387 -0.00290204 1.79036)
(0.00344304 -0.00344116 1.8864)
(0.00124621 -0.00374349 1.93348)
(-0.00124255 -0.00374322 1.93349)
(-0.00343964 -0.00344043 1.8864)
(-0.00485105 -0.00290097 1.79037)
(-0.00522539 -0.00223393 1.64177)
(-0.00461358 -0.00156535 1.4353)
(0.00398344 -0.00225494 1.35918)
(0.00445503 -0.00318405 1.55647)
(0.00410663 -0.00410621 1.69833)
(0.00290282 -0.00485246 1.79037)
(0.00104892 -0.00527109 1.83567)
(-0.00104609 -0.00527083 1.83567)
(-0.00290022 -0.00485176 1.79037)
(-0.00410448 -0.00410517 1.69834)
(-0.0044534 -0.00318281 1.55648)
(-0.00398237 -0.00225364 1.35919)
(0.00320486 -0.00253706 1.24823)
(0.00350429 -0.00350504 1.42683)
(0.00318346 -0.00445494 1.55647)
(0.00223486 -0.00522662 1.64177)
(0.000805106 -0.0056601 1.68417)
(-0.000803311 -0.00565986 1.68417)
(-0.00223325 -0.00522599 1.64177)
(-0.00318217 -0.00445401 1.55648)
(-0.00350337 -0.00350393 1.42684)
(-0.0032043 -0.0025359 1.24824)
(0.00239093 -0.00239208 1.10569)
(0.00253568 -0.00320558 1.24823)
(0.00225354 -0.00398356 1.35918)
(0.00156539 -0.00461456 1.43529)
(0.000561475 -0.00496871 1.47392)
(-0.000560763 -0.00496855 1.47392)
(-0.0015648 -0.00461407 1.4353)
(-0.0022531 -0.00398285 1.35919)
(-0.00253542 -0.00320477 1.24824)
(-0.00239081 -0.00239122 1.1057)
(0.00122477 0.00122425 1.10351)
(0.00130236 0.00164193 1.24657)
(0.00115985 0.00204279 1.35821)
(0.00080707 0.00236924 1.43495)
(0.000289677 0.00255304 1.47395)
(-0.000289612 0.00255303 1.47395)
(-0.000806993 0.00236924 1.43495)
(-0.00115972 0.00204276 1.35821)
(-0.00130219 0.00164186 1.24658)
(-0.00122454 0.00122413 1.10351)
(0.00164247 0.0013017 1.24657)
(0.00180186 0.00180116 1.42622)
(0.00164234 0.00229477 1.5571)
(0.00115627 0.00269835 1.6435)
(0.000417268 0.0029261 1.68655)
(-0.00041617 0.00292613 1.68655)
(-0.00115521 0.00269846 1.64351)
(-0.00164139 0.00229493 1.55711)
(-0.00180101 0.0018013 1.42622)
(-0.00164178 0.00130178 1.24658)
(0.00204327 0.00115907 1.35821)
(0.00229543 0.00164153 1.5571)
(0.0021258 0.00212501 1.70081)
(0.00150853 0.00251952 1.79446)
(0.000546556 0.00274212 1.84071)
(-0.000544194 0.00274222 1.84071)
(-0.00150629 0.00251979 1.79446)
(-0.00212382 0.00212542 1.70081)
(-0.00229383 0.00164199 1.55711)
(-0.0020421 0.00115945 1.35821)
(0.00236965 0.000806215 1.43495)
(0.00269891 0.00115539 1.6435)
(0.00252021 0.00150766 1.79446)
(0.00179608 0.0017953 1.89254)
(0.000652276 0.00195772 1.94083)
(-0.000648709 0.00195788 1.94083)
(-0.00179273 0.00179572 1.89255)
(-0.0025173 0.0015083 1.79447)
(-0.00269662 0.0011561 1.64351)
(-0.002368 0.000806894 1.43496)
(0.00255335 0.000288754 1.47395)
(0.00292654 0.000416323 1.68655)
(0.0027427 0.000545651 1.84071)
(0.00195841 0.000651446 1.94083)
(0.000712041 0.000711311 1.99007)
(-0.000707632 0.000711496 1.99007)
(-0.0019543 0.000652004 1.94083)
(-0.00273917 0.00054648 1.84072)
(-0.00292379 0.000417288 1.68656)
(-0.00255138 0.000289739 1.47396)
(0.00255328 -0.000290562 1.47395)
(0.0029265 -0.000417127 1.68655)
(0.00274272 -0.000545114 1.84071)
(0.00195849 -0.000649549 1.94083)
(0.000712157 -0.000708388 1.99007)
(-0.000707487 -0.00070817 1.99007)
(-0.00195412 -0.000648898 1.94084)
(-0.002739 -0.000544148 1.84072)
(-0.00292361 -0.000415997 1.68656)
(-0.00255124 -0.000289377 1.47396)
(0.00236944 -0.000807887 1.43495)
(0.00269879 -0.00115613 1.6435)
(0.00252024 -0.00150718 1.79446)
(0.00179628 -0.00179356 1.89255)
(0.000652601 -0.00195506 1.94083)
(-0.000648268 -0.00195482 1.94083)
(-0.00179224 -0.00179289 1.89256)
(-0.00251685 -0.00150621 1.79447)
(-0.00269618 -0.00115497 1.64352)
(-0.00236761 -0.000806673 1.43496)
(0.00204295 -0.00116052 1.35821)
(0.00229524 -0.00164222 1.5571)
(0.00212584 -0.00212463 1.70081)
(0.00150881 -0.00251806 1.79446)
(0.00054703 -0.00273986 1.84071)
(-0.000543562 -0.00273962 1.84072)
(-0.00150561 -0.00251743 1.79447)
(-0.00212316 -0.00212372 1.70082)
(-0.00229319 -0.00164112 1.55712)
(-0.00204155 -0.00115937 1.35822)
(0.00164205 -0.00130286 1.24657)
(0.0018016 -0.0018017 1.42622)
(0.00164237 -0.00229448 1.55711)
(0.00115657 -0.00269723 1.64351)
(0.000417805 -0.00292433 1.68656)
(-0.000415467 -0.00292412 1.68656)
(-0.00115445 -0.00269668 1.64352)
(-0.00164064 -0.00229368 1.55712)
(-0.0018003 -0.00180073 1.42623)
(-0.0016412 -0.00130184 1.24658)
(0.00122433 -0.00122504 1.1035)
(0.00130205 -0.00164227 1.24657)
(0.00115978 -0.00204255 1.35821)
(0.000807273 -0.00236843 1.43496)
(0.00029013 -0.00255179 1.47396)
(-0.000288992 -0.00255165 1.47396)
(-0.000806274 -0.00236801 1.43496)
(-0.00115898 -0.00204193 1.35822)
(-0.00130149 -0.00164155 1.24658)
(-0.00122397 -0.00122427 1.10352)
(0.000605412 0.000605019 1.10246)
(0.000644369 0.000813504 1.24578)
(0.000574935 0.00101437 1.35775)
(0.000400793 0.00117839 1.4348)
(0.000144125 0.0012709 1.47398)
(-0.000143685 0.00127087 1.47398)
(-0.000400376 0.00117832 1.4348)
(-0.000574532 0.00101422 1.35775)
(-0.000643978 0.00081328 1.24578)
(-0.000605056 0.00060473 1.10246)
(0.000813907 0.000643877 1.24578)
(0.00089475 0.000894238 1.42594)
(0.000817905 0.00114314 1.55744)
(0.000577374 0.00134757 1.64439)
(0.000208979 0.00146327 1.68777)
(-0.000207395 0.00146327 1.68777)
(-0.000575877 0.00134758 1.64439)
(-0.000816574 0.00114314 1.55744)
(-0.000893617 0.000894175 1.42594)
(-0.000813043 0.000643725 1.24578)
(0.00101471 0.000574372 1.35775)
(0.0011436 0.000817328 1.55744)
(0.00106316 0.00106261 1.70206)
(0.000757037 0.00126397 1.79654)
(0.000275306 0.00137804 1.84327)
(-0.000272415 0.0013781 1.84327)
(-0.000754306 0.00126413 1.79654)
(-0.00106077 0.00106284 1.70207)