/*--------------------------------*- C++ -*----------------------------------*\
| =========                 |                                                 |
| \\      /  F ield         | OpenFOAM: The Open Source CFD Toolbox           |
|  \\    /   O peration     | Version:  2412                                  |
|   \\  /    A nd           | Website:  www.openfoam.com                      |
|    \\/     M anipulation  |                                                 |
\*---------------------------------------------------------------------------*/
FoamFile
{
    version     2.0;
    format      ascii;
    arch        "LSB;label=32;scalar=64";
    class       volVectorField;
    location    "3.2";
    object      U;
}
// * * * * * * * * * * * * * * * * * * * * * * * * * * * * * * * * * * * * * //

dimensions      [0 1 -1 0 0 0 0];

internalField   nonuniform List<vector> 
15000
(
(0.00112122 0.00112122 0.0105933)
(0.000823413 0.00104185 0.0105633)
(0.000558941 0.00101731 0.0105243)
(0.000327648 0.000992865 0.0104925)
(0.000107447 0.000981867 0.0104757)
(-0.000107447 0.000981867 0.0104757)
(-0.000327648 0.000992865 0.0104925)
(-0.000558941 0.00101731 0.0105243)
(-0.000823413 0.00104185 0.0105633)
(-0.00112122 0.00112122 0.0105933)
(0.00104185 0.000823413 0.0105633)
(0.000773033 0.000773033 0.0105016)
(0.000528492 0.000739518 0.0104441)
(0.000308074 0.000716136 0.0104039)
(0.000101018 0.000704979 0.0103838)
(-0.000101018 0.000704979 0.0103838)
(-0.000308074 0.000716136 0.0104039)
(-0.000528492 0.000739518 0.0104441)
(-0.000773033 0.000773033 0.0105016)
(-0.00104185 0.000823413 0.0105633)
(0.00101731 0.000558941 0.0105243)
(0.000739518 0.000528492 0.0104441)
(0.000502149 0.000502149 0.0103795)
(0.000291097 0.00048324 0.0103368)
(9.52648e-05 0.000473815 0.0103158)
(-9.52648e-05 0.000473815 0.0103158)
(-0.000291097 0.00048324 0.0103368)
(-0.000502149 0.000502149 0.0103795)
(-0.000739518 0.000528492 0.0104441)
(-0.00101731 0.000558941 0.0105243)
(0.000992865 0.000327648 0.0104925)
(0.000716136 0.000308074 0.0104039)
(0.00048324 0.000291097 0.0103368)
(0.000278857 0.000278857 0.0102936)
(9.10864e-05 0.000272684 0.0102727)
(-9.10864e-05 0.000272684 0.0102727)
(-0.000278857 0.000278857 0.0102936)
(-0.00048324 0.000291097 0.0103368)
(-0.000716136 0.000308074 0.0104039)
(-0.000992865 0.000327648 0.0104925)
(0.000981867 0.000107447 0.0104757)
(0.000704979 0.000101018 0.0103838)
(0.000473815 9.52648e-05 0.0103158)
(0.000272684 9.10864e-05 0.0102727)
(8.89705e-05 8.89705e-05 0.0102519)
(-8.89705e-05 8.89705e-05 0.0102519)
(-0.000272684 9.10864e-05 0.0102727)
(-0.000473815 9.52647e-05 0.0103158)
(-0.000704979 0.000101018 0.0103838)
(-0.000981867 0.000107447 0.0104757)
(0.000981867 -0.000107447 0.0104757)
(0.000704979 -0.000101018 0.0103838)
(0.000473815 -9.52648e-05 0.0103158)
(0.000272684 -9.10864e-05 0.0102727)
(8.89705e-05 -8.89705e-05 0.0102519)
(-8.89705e-05 -8.89705e-05 0.0102519)
(-0.000272684 -9.10864e-05 0.0102727)
(-0.000473815 -9.52647e-05 0.0103158)
(-0.000704979 -0.000101018 0.0103838)
(-0.000981867 -0.000107447 0.0104757)
(0.000992865 -0.000327648 0.0104925)
(0.000716136 -0.000308074 0.0104039)
(0.00048324 -0.000291097 0.0103368)
(0.000278857 -0.000278857 0.0102936)
(9.10864e-05 -0.000272684 0.0102727)
(-9.10864e-05 -0.000272684 0.0102727)
(-0.000278857 -0.000278857 0.0102936)
(-0.00048324 -0.000291097 0.0103368)
(-0.000716136 -0.000308074 0.0104039)
(-0.000992865 -0.000327648 0.0104925)
(0.00101731 -0.000558941 0.0105243)
(0.000739518 -0.000528492 0.0104441)
(0.000502149 -0.000502149 0.0103795)
(0.000291097 -0.00048324 0.0103368)
(9.52647e-05 -0.000473815 0.0103158)
(-9.52648e-05 -0.000473815 0.0103158)
(-0.000291097 -0.00048324 0.0103368)
(-0.000502149 -0.000502149 0.0103795)
(-0.000739518 -0.000528492 0.0104441)
(-0.00101731 -0.000558941 0.0105243)
(0.00104185 -0.000823413 0.0105633)
(0.000773033 -0.000773033 0.0105016)
(0.000528492 -0.000739518 0.0104441)
(0.000308074 -0.000716136 0.0104039)
(0.000101018 -0.000704979 0.0103838)
(-0.000101018 -0.000704979 0.0103838)
(-0.000308074 -0.000716136 0.0104039)
(-0.000528492 -0.000739518 0.0104441)
(-0.000773033 -0.000773033 0.0105016)
(-0.00104185 -0.000823413 0.0105633)
(0.00112122 -0.00112122 0.0105933)
(0.000823413 -0.00104185 0.0105633)
(0.000558941 -0.00101731 0.0105243)
(0.000327648 -0.000992865 0.0104925)
(0.000107447 -0.000981867 0.0104757)
(-0.000107447 -0.000981867 0.0104757)
(-0.000327648 -0.000992865 0.0104925)
(-0.000558941 -0.00101731 0.0105243)
(-0.000823413 -0.00104185 0.0105633)
(-0.00112122 -0.00112122 0.0105933)
(0.000501835 0.000501835 0.0123503)
(0.000399829 0.000529579 0.0122517)
(0.000286146 0.000553361 0.0121368)
(0.000172936 0.000566838 0.0120469)
(5.74811e-05 0.000574553 0.0119999)
(-5.74811e-05 0.000574553 0.0119999)
(-0.000172936 0.000566838 0.0120469)
(-0.000286146 0.000553361 0.0121368)
(-0.000399829 0.000529579 0.0122517)
(-0.000501835 0.000501835 0.0123503)
(0.000529579 0.000399829 0.0122517)
(0.000421332 0.000421332 0.0120683)
(0.000303616 0.000437602 0.0119046)
(0.000183455 0.000447437 0.0117912)
(6.12342e-05 0.000452791 0.0117346)
(-6.12343e-05 0.000452791 0.0117346)
(-0.000183455 0.000447437 0.0117912)
(-0.000303616 0.000437602 0.0119046)
(-0.000421332 0.000421332 0.0120683)
(-0.000529579 0.000399829 0.0122517)
(0.000553361 0.000286146 0.0121368)
(0.000437602 0.000303616 0.0119046)
(0.000315854 0.000315854 0.01172)
(0.000190886 0.00032326 0.0115984)
(6.38176e-05 0.000327068 0.0115387)
(-6.38176e-05 0.000327068 0.0115387)
(-0.000190886 0.00032326 0.0115984)
(-0.000315854 0.000315854 0.01172)
(-0.000437602 0.000303616 0.0119046)
(-0.000553361 0.000286146 0.0121368)
(0.000566838 0.000172936 0.0120469)
(0.000447437 0.000183455 0.0117912)
(0.00032326 0.000190886 0.0115984)
(0.000195477 0.000195477 0.0114741)
(6.54102e-05 0.000197805 0.0114137)
(-6.54102e-05 0.000197805 0.0114137)
(-0.000195477 0.000195477 0.0114741)
(-0.00032326 0.000190886 0.0115984)
(-0.000447437 0.000183455 0.0117912)
(-0.000566838 0.000172936 0.0120469)
(0.000574553 5.74811e-05 0.0119999)
(0.000452791 6.12343e-05 0.0117346)
(0.000327068 6.38176e-05 0.0115387)
(0.000197805 6.54102e-05 0.0114137)
(6.62105e-05 6.62105e-05 0.0113532)
(-6.62105e-05 6.62105e-05 0.0113532)
(-0.000197805 6.54102e-05 0.0114137)
(-0.000327068 6.38176e-05 0.0115387)
(-0.000452791 6.12343e-05 0.0117346)
(-0.000574553 5.74811e-05 0.0119999)
(0.000574553 -5.74811e-05 0.0119999)
(0.000452791 -6.12343e-05 0.0117346)
(0.000327068 -6.38176e-05 0.0115387)
(0.000197805 -6.54102e-05 0.0114137)
(6.62105e-05 -6.62105e-05 0.0113532)
(-6.62105e-05 -6.62105e-05 0.0113532)
(-0.000197805 -6.54102e-05 0.0114137)
(-0.000327068 -6.38176e-05 0.0115387)
(-0.000452791 -6.12343e-05 0.0117346)
(-0.000574553 -5.74812e-05 0.0119999)
(0.000566838 -0.000172936 0.0120469)
(0.000447437 -0.000183455 0.0117912)
(0.00032326 -0.000190886 0.0115984)
(0.000195477 -0.000195477 0.0114741)
(6.54102e-05 -0.000197805 0.0114137)
(-6.54102e-05 -0.000197805 0.0114137)
(-0.000195477 -0.000195477 0.0114741)
(-0.00032326 -0.000190886 0.0115984)
(-0.000447437 -0.000183455 0.0117912)
(-0.000566838 -0.000172936 0.0120469)
(0.000553361 -0.000286146 0.0121368)
(0.000437602 -0.000303616 0.0119046)
(0.000315854 -0.000315854 0.01172)
(0.000190886 -0.00032326 0.0115984)
(6.38176e-05 -0.000327068 0.0115387)
(-6.38176e-05 -0.000327068 0.0115387)
(-0.000190886 -0.00032326 0.0115984)
(-0.000315854 -0.000315854 0.01172)
(-0.000437602 -0.000303616 0.0119046)
(-0.000553361 -0.000286146 0.0121368)
(0.000529579 -0.000399829 0.0122517)
(0.000421332 -0.000421332 0.0120683)
(0.000303616 -0.000437602 0.0119046)
(0.000183455 -0.000447437 0.0117912)
(6.12343e-05 -0.000452791 0.0117346)
(-6.12343e-05 -0.000452791 0.0117346)
(-0.000183455 -0.000447437 0.0117912)
(-0.000303616 -0.000437602 0.0119046)
(-0.000421332 -0.000421332 0.0120683)
(-0.000529579 -0.000399829 0.0122517)
(0.000501835 -0.000501835 0.0123503)
(0.000399829 -0.000529579 0.0122517)
(0.000286146 -0.000553361 0.0121368)
(0.000172936 -0.000566838 0.0120469)
(5.74811e-05 -0.000574553 0.0119999)
(-5.74812e-05 -0.000574553 0.0119999)
(-0.000172936 -0.000566838 0.0120469)
(-0.000286146 -0.000553361 0.0121368)
(-0.000399829 -0.000529579 0.0122517)
(-0.000501835 -0.000501835 0.0123503)
(0.000283121 0.000283121 0.0121948)
(0.000238792 0.000315183 0.0122402)
(0.000180486 0.000340774 0.0122216)
(0.000112494 0.000357049 0.0121921)
(3.79835e-05 0.000365604 0.0121742)
(-3.79835e-05 0.000365604 0.0121742)
(-0.000112494 0.000357049 0.0121921)
(-0.000180486 0.000340774 0.0122216)
(-0.000238792 0.000315183 0.0122402)
(-0.000283121 0.000283121 0.0121948)
(0.000315183 0.000238792 0.0122402)
(0.000268941 0.000268941 0.0121983)
(0.000203966 0.00029052 0.012131)
(0.000127059 0.000303931 0.0120782)
(4.30227e-05 0.000310702 0.0120508)
(-4.30227e-05 0.000310702 0.0120508)
(-0.000127059 0.000303931 0.0120782)
(-0.000203966 0.00029052 0.012131)
(-0.000268941 0.000268941 0.0121983)
(-0.000315183 0.000238792 0.0122402)
(0.000340774 0.000180486 0.0122216)
(0.00029052 0.000203966 0.012131)
(0.00022021 0.00022021 0.012042)
(0.000136936 0.000230012 0.0119799)
(4.63767e-05 0.000234774 0.0119487)
(-4.63767e-05 0.000234774 0.0119487)
(-0.000136936 0.000230012 0.0119799)
(-0.00022021 0.00022021 0.012042)
(-0.00029052 0.000203966 0.012131)
(-0.000340774 0.000180486 0.0122216)
(0.000357049 0.000112494 0.0121921)
(0.000303931 0.000127059 0.0120782)
(0.000230012 0.000136936 0.0119799)
(0.000142801 0.000142801 0.0119137)
(4.83431e-05 0.000145588 0.0118808)
(-4.83431e-05 0.000145588 0.0118808)
(-0.000142801 0.000142801 0.0119137)
(-0.000230012 0.000136936 0.0119799)
(-0.000303931 0.000127059 0.0120782)
(-0.000357049 0.000112494 0.0121921)
(0.000365604 3.79835e-05 0.0121742)
(0.000310702 4.30227e-05 0.0120508)
(0.000234774 4.63767e-05 0.0119487)
(0.000145588 4.83431e-05 0.0118808)
(4.92659e-05 4.92659e-05 0.0118473)
(-4.92659e-05 4.92659e-05 0.0118473)
(-0.000145588 4.83431e-05 0.0118808)
(-0.000234774 4.63767e-05 0.0119487)
(-0.000310702 4.30227e-05 0.0120508)
(-0.000365604 3.79835e-05 0.0121742)
(0.000365604 -3.79835e-05 0.0121742)
(0.000310702 -4.30227e-05 0.0120508)
(0.000234774 -4.63766e-05 0.0119487)
(0.000145588 -4.83431e-05 0.0118808)
(4.92659e-05 -4.92659e-05 0.0118473)
(-4.92659e-05 -4.92659e-05 0.0118473)
(-0.000145588 -4.83431e-05 0.0118808)
(-0.000234774 -4.63767e-05 0.0119487)
(-0.000310702 -4.30227e-05 0.0120508)
(-0.000365604 -3.79835e-05 0.0121742)
(0.000357049 -0.000112494 0.0121921)
(0.000303931 -0.000127059 0.0120782)
(0.000230012 -0.000136936 0.0119799)
(0.000142801 -0.000142801 0.0119137)
(4.83431e-05 -0.000145588 0.0118808)
(-4.83431e-05 -0.000145588 0.0118808)
(-0.000142801 -0.000142801 0.0119137)
(-0.000230012 -0.000136936 0.0119799)
(-0.000303931 -0.000127059 0.0120782)
(-0.000357049 -0.000112494 0.0121921)
(0.000340774 -0.000180486 0.0122216)
(0.00029052 -0.000203966 0.012131)
(0.00022021 -0.00022021 0.012042)
(0.000136936 -0.000230012 0.0119799)
(4.63767e-05 -0.000234774 0.0119487)
(-4.63767e-05 -0.000234774 0.0119487)
(-0.000136936 -0.000230012 0.0119799)
(-0.00022021 -0.00022021 0.012042)
(-0.00029052 -0.000203966 0.012131)
(-0.000340774 -0.000180486 0.0122216)
(0.000315183 -0.000238792 0.0122402)
(0.000268941 -0.000268941 0.0121983)
(0.000203966 -0.00029052 0.012131)
(0.000127059 -0.000303931 0.0120782)
(4.30227e-05 -0.000310702 0.0120508)
(-4.30227e-05 -0.000310702 0.0120508)
(-0.000127059 -0.000303931 0.0120782)
(-0.000203966 -0.00029052 0.012131)
(-0.000268941 -0.000268941 0.0121983)
(-0.000315183 -0.000238792 0.0122402)
(0.000283121 -0.000283121 0.0121948)
(0.000238792 -0.000315183 0.0122402)
(0.000180486 -0.000340774 0.0122216)
(0.000112494 -0.000357049 0.0121921)
(3.79835e-05 -0.000365604 0.0121742)
(-3.79835e-05 -0.000365604 0.0121742)
(-0.000112494 -0.000357049 0.0121921)
(-0.000180486 -0.000340774 0.0122216)
(-0.000238792 -0.000315183 0.0122402)
(-0.000283121 -0.000283121 0.0121948)
(9.33973e-05 9.33973e-05 0.0122724)
(8.49136e-05 0.000116051 0.0123638)
(6.84593e-05 0.000133288 0.0123807)
(4.41605e-05 0.000145206 0.012375)
(1.51574e-05 0.000151429 0.0123688)
(-1.51574e-05 0.000151429 0.0123688)
(-4.41605e-05 0.000145206 0.012375)
(-6.84592e-05 0.000133288 0.0123807)
(-8.49136e-05 0.000116051 0.0123638)
(-9.33973e-05 9.33973e-05 0.0122724)
(0.000116051 8.49136e-05 0.0123638)
(0.000106818 0.000106818 0.0123782)
(8.5712e-05 0.000123314 0.0123522)
(5.52249e-05 0.000134232 0.0123261)
(1.90006e-05 0.000139802 0.0123116)
(-1.90006e-05 0.000139802 0.0123116)
(-5.52249e-05 0.000134232 0.0123261)
(-8.5712e-05 0.000123314 0.0123522)
(-0.000106818 0.000106818 0.0123782)
(-0.000116051 8.49136e-05 0.0123638)
(0.000133288 6.84592e-05 0.0123807)
(0.000123314 8.5712e-05 0.0123522)
(9.87905e-05 9.87904e-05 0.0123071)
(6.35141e-05 0.000107321 0.0122725)
(2.18549e-05 0.000111598 0.0122545)
(-2.18549e-05 0.000111598 0.0122545)
(-6.35141e-05 0.000107321 0.0122725)
(-9.87905e-05 9.87905e-05 0.0123071)
(-0.000123314 8.5712e-05 0.0123522)
(-0.000133288 6.84592e-05 0.0123807)
(0.000145206 4.41605e-05 0.012375)
(0.000134232 5.52249e-05 0.0123261)
(0.000107321 6.35141e-05 0.0122725)
(6.88891e-05 6.88891e-05 0.012234)
(2.36966e-05 7.15606e-05 0.0122143)
(-2.36966e-05 7.15606e-05 0.0122143)
(-6.88891e-05 6.88891e-05 0.012234)
(-0.000107321 6.35141e-05 0.0122725)
(-0.000134232 5.52249e-05 0.0123261)
(-0.000145206 4.41605e-05 0.012375)
(0.000151429 1.51574e-05 0.0123688)
(0.000139802 1.90006e-05 0.0123116)
(0.000111598 2.18549e-05 0.0122545)
(7.15606e-05 2.36966e-05 0.0122143)
(2.46072e-05 2.46072e-05 0.012194)
(-2.46072e-05 2.46072e-05 0.012194)
(-7.15606e-05 2.36966e-05 0.0122143)
(-0.000111598 2.18549e-05 0.0122545)
(-0.000139802 1.90006e-05 0.0123116)
(-0.000151429 1.51574e-05 0.0123688)
(0.000151429 -1.51574e-05 0.0123688)
(0.000139802 -1.90006e-05 0.0123116)
(0.000111598 -2.18549e-05 0.0122545)
(7.15606e-05 -2.36966e-05 0.0122143)
(2.46072e-05 -2.46072e-05 0.012194)
(-2.46072e-05 -2.46072e-05 0.012194)
(-7.15606e-05 -2.36966e-05 0.0122143)
(-0.000111598 -2.18549e-05 0.0122545)
(-0.000139802 -1.90006e-05 0.0123116)
(-0.000151429 -1.51574e-05 0.0123688)
(0.000145206 -4.41605e-05 0.012375)
(0.000134232 -5.52249e-05 0.0123261)
(0.000107321 -6.35141e-05 0.0122725)
(6.88891e-05 -6.88891e-05 0.012234)
(2.36966e-05 -7.15606e-05 0.0122143)
(-2.36966e-05 -7.15606e-05 0.0122143)
(-6.88891e-05 -6.88891e-05 0.012234)
(-0.000107321 -6.35141e-05 0.0122725)
(-0.000134232 -5.52249e-05 0.0123261)
(-0.000145206 -4.41605e-05 0.012375)
(0.000133288 -6.84592e-05 0.0123807)
(0.000123314 -8.5712e-05 0.0123522)
(9.87905e-05 -9.87905e-05 0.0123071)
(6.35141e-05 -0.000107321 0.0122725)
(2.18549e-05 -0.000111598 0.0122545)
(-2.18549e-05 -0.000111598 0.0122545)
(-6.35141e-05 -0.000107321 0.0122725)
(-9.87905e-05 -9.87904e-05 0.0123071)
(-0.000123314 -8.5712e-05 0.0123522)
(-0.000133288 -6.84592e-05 0.0123807)
(0.000116051 -8.49136e-05 0.0123638)
(0.000106818 -0.000106818 0.0123782)
(8.5712e-05 -0.000123313 0.0123522)
(5.52249e-05 -0.000134232 0.0123261)
(1.90006e-05 -0.000139802 0.0123116)
(-1.90006e-05 -0.000139802 0.0123116)
(-5.52249e-05 -0.000134232 0.0123261)
(-8.5712e-05 -0.000123314 0.0123522)
(-0.000106818 -0.000106818 0.0123782)
(-0.000116051 -8.49136e-05 0.0123638)
(9.33973e-05 -9.33973e-05 0.0122724)
(8.49136e-05 -0.000116051 0.0123638)
(6.84592e-05 -0.000133288 0.0123807)
(4.41605e-05 -0.000145206 0.012375)
(1.51574e-05 -0.000151429 0.0123688)
(-1.51574e-05 -0.000151429 0.0123688)
(-4.41605e-05 -0.000145206 0.012375)
(-6.84592e-05 -0.000133288 0.0123807)
(-8.49136e-05 -0.000116051 0.0123638)
(-9.33973e-05 -9.33973e-05 0.0122724)
(3.1339e-05 3.1339e-05 0.0122426)
(2.9263e-05 4.02134e-05 0.0123597)
(2.43514e-05 4.72134e-05 0.0123986)
(1.594e-05 5.23089e-05 0.0124085)
(5.51157e-06 5.49976e-05 0.0124103)
(-5.51158e-06 5.49976e-05 0.0124103)
(-1.594e-05 5.23089e-05 0.0124085)
(-2.43514e-05 4.72134e-05 0.0123986)
(-2.92631e-05 4.02134e-05 0.0123597)
(-3.13391e-05 3.13391e-05 0.0122426)
(4.02134e-05 2.92631e-05 0.0123597)
(3.85997e-05 3.85997e-05 0.0124088)
(3.19336e-05 4.59062e-05 0.0124107)
(2.09436e-05 5.09639e-05 0.0124037)
(7.26789e-06 5.35967e-05 0.0123988)
(-7.26789e-06 5.35967e-05 0.0123988)
(-2.09436e-05 5.09639e-05 0.0124037)
(-3.19335e-05 4.59062e-05 0.0124107)
(-3.85997e-05 3.85997e-05 0.0124088)
(-4.02134e-05 2.92631e-05 0.0123597)
(4.72133e-05 2.43515e-05 0.0123986)
(4.59061e-05 3.19336e-05 0.0124107)
(3.80248e-05 3.80248e-05 0.0123971)
(2.49501e-05 4.22085e-05 0.0123835)
(8.67005e-06 4.43646e-05 0.012376)
(-8.67004e-06 4.43646e-05 0.012376)
(-2.49501e-05 4.22085e-05 0.0123835)
(-3.80248e-05 3.80248e-05 0.0123971)
(-4.59062e-05 3.19335e-05 0.0124107)
(-4.72134e-05 2.43515e-05 0.0123986)
(5.23089e-05 1.594e-05 0.0124085)
(5.09639e-05 2.09436e-05 0.0124037)
(4.22085e-05 2.49501e-05 0.0123835)
(2.7694e-05 2.7694e-05 0.0123671)
(9.62805e-06 2.91007e-05 0.0123583)
(-9.62804e-06 2.91007e-05 0.0123583)
(-2.7694e-05 2.7694e-05 0.0123671)
(-4.22085e-05 2.49501e-05 0.0123835)
(-5.09639e-05 2.09436e-05 0.0124037)
(-5.23089e-05 1.594e-05 0.0124085)
(5.49976e-05 5.51157e-06 0.0124103)
(5.35967e-05 7.2679e-06 0.0123988)
(4.43646e-05 8.67006e-06 0.012376)
(2.91007e-05 9.62806e-06 0.0123583)
(1.01177e-05 1.01177e-05 0.012349)
(-1.01177e-05 1.01177e-05 0.012349)
(-2.91007e-05 9.62805e-06 0.0123583)
(-4.43646e-05 8.67004e-06 0.012376)
(-5.35967e-05 7.26788e-06 0.0123988)
(-5.49976e-05 5.51158e-06 0.0124103)
(5.49976e-05 -5.51158e-06 0.0124103)
(5.35967e-05 -7.26788e-06 0.0123988)
(4.43646e-05 -8.67003e-06 0.012376)
(2.91007e-05 -9.62803e-06 0.0123583)
(1.01177e-05 -1.01176e-05 0.012349)
(-1.01177e-05 -1.01177e-05 0.012349)
(-2.91007e-05 -9.62805e-06 0.0123583)
(-4.43646e-05 -8.67005e-06 0.012376)
(-5.35967e-05 -7.2679e-06 0.0123988)
(-5.49976e-05 -5.51158e-06 0.0124103)
(5.23089e-05 -1.594e-05 0.0124085)
(5.09639e-05 -2.09435e-05 0.0124037)
(4.22085e-05 -2.49501e-05 0.0123835)
(2.7694e-05 -2.7694e-05 0.0123671)
(9.62804e-06 -2.91007e-05 0.0123583)
(-9.62805e-06 -2.91007e-05 0.0123583)
(-2.7694e-05 -2.7694e-05 0.0123671)
(-4.22085e-05 -2.49501e-05 0.0123835)
(-5.09639e-05 -2.09436e-05 0.0124037)
(-5.23088e-05 -1.594e-05 0.0124085)
(4.72134e-05 -2.43515e-05 0.0123986)
(4.59062e-05 -3.19336e-05 0.0124107)
(3.80248e-05 -3.80248e-05 0.0123971)
(2.49501e-05 -4.22085e-05 0.0123835)
(8.67004e-06 -4.43646e-05 0.012376)
(-8.67006e-06 -4.43646e-05 0.012376)
(-2.49501e-05 -4.22085e-05 0.0123835)
(-3.80248e-05 -3.80248e-05 0.0123971)
(-4.59062e-05 -3.19335e-05 0.0124107)
(-4.72134e-05 -2.43515e-05 0.0123986)
(4.02134e-05 -2.92631e-05 0.0123597)
(3.85998e-05 -3.85998e-05 0.0124088)
(3.19336e-05 -4.59062e-05 0.0124107)
(2.09436e-05 -5.09639e-05 0.0124037)
(7.26788e-06 -5.35967e-05 0.0123988)
(-7.2679e-06 -5.35967e-05 0.0123988)
(-2.09436e-05 -5.09639e-05 0.0124037)
(-3.19335e-05 -4.59062e-05 0.0124107)
(-3.85997e-05 -3.85998e-05 0.0124088)
(-4.02134e-05 -2.92631e-05 0.0123597)
(3.13391e-05 -3.13391e-05 0.0122426)
(2.9263e-05 -4.02134e-05 0.0123597)
(2.43515e-05 -4.72134e-05 0.0123986)
(1.594e-05 -5.23089e-05 0.0124085)
(5.51158e-06 -5.49976e-05 0.0124103)
(-5.51158e-06 -5.49976e-05 0.0124103)
(-1.594e-05 -5.23088e-05 0.0124085)
(-2.43515e-05 -4.72134e-05 0.0123986)
(-2.92631e-05 -4.02134e-05 0.0123597)
(-3.13391e-05 -3.13391e-05 0.0122426)
(1.03136e-05 1.03136e-05 0.0122228)
(9.99066e-06 1.379e-05 0.0123468)
(8.61356e-06 1.65555e-05 0.0123926)
(5.73403e-06 1.86107e-05 0.0124079)
(2.00019e-06 1.96969e-05 0.0124125)
(-2.0002e-06 1.96969e-05 0.0124125)
(-5.73402e-06 1.86107e-05 0.0124079)
(-8.61355e-06 1.65555e-05 0.0123926)
(-9.99066e-06 1.379e-05 0.0123468)
(-1.03136e-05 1.03137e-05 0.0122228)
(1.379e-05 9.99066e-06 0.0123468)
(1.37856e-05 1.37855e-05 0.0124078)
(1.17371e-05 1.68032e-05 0.0124202)
(7.82298e-06 1.89349e-05 0.0124209)
(2.73576e-06 2.0051e-05 0.0124199)
(-2.73577e-06 2.0051e-05 0.0124199)
(-7.82299e-06 1.89349e-05 0.0124209)
(-1.17371e-05 1.68032e-05 0.0124202)
(-1.37855e-05 1.37855e-05 0.0124078)
(-1.379e-05 9.99066e-06 0.0123468)
(1.65555e-05 8.61356e-06 0.0123926)
(1.68033e-05 1.17371e-05 0.0124202)
(1.43089e-05 1.43089e-05 0.0124198)
(9.54143e-06 1.61139e-05 0.0124156)
(3.34081e-06 1.70532e-05 0.012413)
(-3.34081e-06 1.70533e-05 0.012413)
(-9.54144e-06 1.61139e-05 0.0124156)
(-1.43089e-05 1.43089e-05 0.0124198)
(-1.68032e-05 1.17371e-05 0.0124202)
(-1.65555e-05 8.61355e-06 0.0123926)
(1.86107e-05 5.73403e-06 0.0124079)
(1.89349e-05 7.82298e-06 0.0124209)
(1.61139e-05 9.54143e-06 0.0124156)
(1.07441e-05 1.07441e-05 0.0124097)
(3.76374e-06 1.13679e-05 0.0124063)
(-3.76373e-06 1.13679e-05 0.0124063)
(-1.07441e-05 1.07441e-05 0.0124097)
(-1.61139e-05 9.54145e-06 0.0124156)
(-1.89349e-05 7.823e-06 0.0124209)
(-1.86107e-05 5.73402e-06 0.0124079)
(1.96969e-05 2.00019e-06 0.0124125)
(2.0051e-05 2.73576e-06 0.0124199)
(1.70532e-05 3.3408e-06 0.012413)
(1.13679e-05 3.76373e-06 0.0124063)
(3.98264e-06 3.98264e-06 0.0124027)
(-3.98263e-06 3.98264e-06 0.0124027)
(-1.13679e-05 3.76374e-06 0.0124063)
(-1.70532e-05 3.34081e-06 0.012413)
(-2.0051e-05 2.73577e-06 0.0124199)
(-1.96969e-05 2.00019e-06 0.0124125)
(1.96969e-05 -2.00019e-06 0.0124125)
(2.0051e-05 -2.73577e-06 0.0124199)
(1.70533e-05 -3.34081e-06 0.012413)
(1.13679e-05 -3.76373e-06 0.0124063)
(3.98264e-06 -3.98263e-06 0.0124027)
(-3.98263e-06 -3.98263e-06 0.0124027)
(-1.13679e-05 -3.76373e-06 0.0124063)
(-1.70532e-05 -3.3408e-06 0.012413)
(-2.0051e-05 -2.73577e-06 0.0124199)
(-1.96969e-05 -2.0002e-06 0.0124125)
(1.86107e-05 -5.73401e-06 0.0124079)
(1.89349e-05 -7.82298e-06 0.0124209)
(1.61139e-05 -9.54143e-06 0.0124156)
(1.07441e-05 -1.07441e-05 0.0124097)
(3.76374e-06 -1.13679e-05 0.0124063)
(-3.76373e-06 -1.13679e-05 0.0124063)
(-1.07441e-05 -1.07441e-05 0.0124097)
(-1.61139e-05 -9.54142e-06 0.0124156)
(-1.89349e-05 -7.82298e-06 0.0124209)
(-1.86107e-05 -5.73403e-06 0.0124079)
(1.65555e-05 -8.61354e-06 0.0123926)
(1.68032e-05 -1.17371e-05 0.0124202)
(1.43089e-05 -1.43089e-05 0.0124198)
(9.54144e-06 -1.61138e-05 0.0124156)
(3.34081e-06 -1.70532e-05 0.012413)
(-3.3408e-06 -1.70532e-05 0.012413)
(-9.54142e-06 -1.61138e-05 0.0124156)
(-1.43089e-05 -1.43089e-05 0.0124198)
(-1.68033e-05 -1.17371e-05 0.0124202)
(-1.65555e-05 -8.61355e-06 0.0123926)
(1.379e-05 -9.99065e-06 0.0123468)
(1.37855e-05 -1.37855e-05 0.0124078)
(1.17371e-05 -1.68032e-05 0.0124202)
(7.82297e-06 -1.89349e-05 0.0124209)
(2.73577e-06 -2.0051e-05 0.0124199)
(-2.73576e-06 -2.0051e-05 0.0124199)
(-7.82298e-06 -1.89349e-05 0.0124209)
(-1.17371e-05 -1.68033e-05 0.0124202)
(-1.37856e-05 -1.37856e-05 0.0124078)
(-1.379e-05 -9.99065e-06 0.0123468)
(1.03137e-05 -1.03136e-05 0.0122228)
(9.99066e-06 -1.379e-05 0.0123468)
(8.61354e-06 -1.65555e-05 0.0123926)
(5.73401e-06 -1.86107e-05 0.0124079)
(2.00019e-06 -1.96969e-05 0.0124125)
(-2.0002e-06 -1.96969e-05 0.0124125)
(-5.73405e-06 -1.86107e-05 0.0124079)
(-8.61357e-06 -1.65555e-05 0.0123926)
(-9.99065e-06 -1.379e-05 0.0123468)
(-1.03137e-05 -1.03136e-05 0.0122228)
(3.09516e-06 3.09516e-06 0.0122168)
(3.1264e-06 4.39772e-06 0.0123427)
(2.79737e-06 5.43991e-06 0.0123907)
(1.89465e-06 6.24219e-06 0.0124076)
(6.67105e-07 6.6657e-06 0.0124131)
(-6.6711e-07 6.6657e-06 0.0124131)
(-1.89466e-06 6.2422e-06 0.0124076)
(-2.79738e-06 5.43995e-06 0.0123907)
(-3.12641e-06 4.39774e-06 0.0123427)
(-3.09516e-06 3.09516e-06 0.0122168)
(4.39772e-06 3.12641e-06 0.0123427)
(4.58155e-06 4.58156e-06 0.0124074)
(4.0209e-06 5.77339e-06 0.0124233)
(2.72682e-06 6.63862e-06 0.0124266)
(9.61702e-07 7.09622e-06 0.0124271)
(-9.6169e-07 7.09623e-06 0.0124271)
(-2.72679e-06 6.63863e-06 0.0124266)
(-4.02091e-06 5.77344e-06 0.0124233)
(-4.5816e-06 4.5816e-06 0.0124074)
(-4.39773e-06 3.12642e-06 0.0123427)
(5.4399e-06 2.79738e-06 0.0123907)
(5.77338e-06 4.02091e-06 0.0124233)
(5.06483e-06 5.06483e-06 0.0124275)
(3.43727e-06 5.81782e-06 0.0124268)
(1.2137e-06 6.21479e-06 0.0124259)
(-1.21369e-06 6.21479e-06 0.0124259)
(-3.43724e-06 5.81782e-06 0.0124268)
(-5.06482e-06 5.06483e-06 0.0124275)
(-5.77343e-06 4.02092e-06 0.0124233)
(-5.43994e-06 2.79739e-06 0.0123907)
(6.24218e-06 1.89465e-06 0.0124076)
(6.63861e-06 2.72683e-06 0.0124266)
(5.81782e-06 3.43728e-06 0.0124268)
(3.94823e-06 3.94824e-06 0.0124248)
(1.39481e-06 4.21692e-06 0.0124236)
(-1.3948e-06 4.21692e-06 0.0124236)
(-3.94821e-06 3.94823e-06 0.0124248)
(-5.8178e-06 3.43725e-06 0.0124268)
(-6.63862e-06 2.72681e-06 0.0124266)
(-6.2422e-06 1.89467e-06 0.0124076)
(6.66569e-06 6.67105e-07 0.0124131)
(7.09622e-06 9.61711e-07 0.0124271)
(6.21479e-06 1.21371e-06 0.0124259)
(4.21691e-06 1.39482e-06 0.0124236)
(1.4899e-06 1.4899e-06 0.0124222)
(-1.48989e-06 1.4899e-06 0.0124222)
(-4.2169e-06 1.39481e-06 0.0124236)
(-6.21478e-06 1.21369e-06 0.0124259)
(-7.09622e-06 9.61696e-07 0.0124271)
(-6.6657e-06 6.67116e-07 0.0124131)
(6.6657e-06 -6.67115e-07 0.0124131)
(7.09623e-06 -9.61693e-07 0.0124271)
(6.21479e-06 -1.21369e-06 0.0124259)
(4.21691e-06 -1.3948e-06 0.0124236)
(1.48989e-06 -1.48989e-06 0.0124222)
(-1.48989e-06 -1.48989e-06 0.0124222)
(-4.21691e-06 -1.39481e-06 0.0124236)
(-6.21478e-06 -1.2137e-06 0.0124259)
(-7.09621e-06 -9.61701e-07 0.0124271)
(-6.6657e-06 -6.67118e-07 0.0124131)
(6.2422e-06 -1.89466e-06 0.0124076)
(6.63863e-06 -2.7268e-06 0.0124266)
(5.81782e-06 -3.43724e-06 0.0124268)
(3.94823e-06 -3.94822e-06 0.0124248)
(1.3948e-06 -4.21691e-06 0.0124236)
(-1.39481e-06 -4.21691e-06 0.0124236)
(-3.94822e-06 -3.94822e-06 0.0124248)
(-5.81781e-06 -3.43725e-06 0.0124268)
(-6.63862e-06 -2.72683e-06 0.0124266)
(-6.24219e-06 -1.89468e-06 0.0124076)
(5.43994e-06 -2.79738e-06 0.0123907)
(5.77343e-06 -4.02091e-06 0.0124233)
(5.06482e-06 -5.06483e-06 0.0124275)
(3.43725e-06 -5.81781e-06 0.0124268)
(1.2137e-06 -6.21478e-06 0.0124259)
(-1.2137e-06 -6.21478e-06 0.0124259)
(-3.43725e-06 -5.81781e-06 0.0124268)
(-5.06484e-06 -5.06483e-06 0.0124275)
(-5.77343e-06 -4.02094e-06 0.0124233)
(-5.43992e-06 -2.79739e-06 0.0123907)
(4.39775e-06 -3.12642e-06 0.0123427)
(4.58159e-06 -4.5816e-06 0.0124074)
(4.02092e-06 -5.77344e-06 0.0124233)
(2.72682e-06 -6.63863e-06 0.0124266)
(9.61701e-07 -7.09621e-06 0.0124271)
(-9.61703e-07 -7.09621e-06 0.0124271)
(-2.72682e-06 -6.63862e-06 0.0124266)
(-4.02094e-06 -5.77342e-06 0.0124233)
(-4.58159e-06 -4.58158e-06 0.0124074)
(-4.39771e-06 -3.1264e-06 0.0123427)
(3.09518e-06 -3.09517e-06 0.0122168)
(3.12641e-06 -4.39774e-06 0.0123427)
(2.79739e-06 -5.43994e-06 0.0123907)
(1.89468e-06 -6.2422e-06 0.0124076)
(6.67122e-07 -6.66571e-06 0.0124131)
(-6.67116e-07 -6.6657e-06 0.0124131)
(-1.89467e-06 -6.24219e-06 0.0124076)
(-2.79739e-06 -5.43992e-06 0.0123907)
(-3.12641e-06 -4.39771e-06 0.0123427)
(-3.09516e-06 -3.09515e-06 0.0122168)
(9.3113e-07 9.31131e-07 0.0122147)
(9.67597e-07 1.37738e-06 0.0123412)
(8.86795e-07 1.73577e-06 0.0123899)
(6.06429e-07 2.02147e-06 0.0124074)
(2.14941e-07 2.17215e-06 0.0124133)
(-2.14944e-07 2.17214e-06 0.0124133)
(-6.06423e-07 2.02146e-06 0.0124074)
(-8.86783e-07 1.73575e-06 0.0123899)
(-9.67597e-07 1.37738e-06 0.0123412)
(-9.31126e-07 9.31132e-07 0.0122147)
(1.37738e-06 9.67589e-07 0.0123412)
(1.47676e-06 1.47675e-06 0.0124071)
(1.32411e-06 1.9051e-06 0.0124243)
(9.08615e-07 2.22448e-06 0.0124286)
(3.22447e-07 2.39522e-06 0.0124297)
(-3.2246e-07 2.39522e-06 0.0124297)
(-9.08627e-07 2.22447e-06 0.0124286)
(-1.3241e-06 1.90508e-06 0.0124243)
(-1.47674e-06 1.47674e-06 0.0124071)
(-1.37737e-06 9.67596e-07 0.0123412)
(1.73577e-06 8.86788e-07 0.0123899)
(1.9051e-06 1.32411e-06 0.0124243)
(1.70994e-06 1.70993e-06 0.0124303)
(1.17628e-06 1.99607e-06 0.0124308)
(4.18146e-07 2.14902e-06 0.0124307)
(-4.18158e-07 2.14902e-06 0.0124307)
(-1.17629e-06 1.99607e-06 0.0124308)
(-1.70993e-06 1.70994e-06 0.0124303)
(-1.90508e-06 1.3241e-06 0.0124243)
(-1.73575e-06 8.86792e-07 0.0123899)
(2.02148e-06 6.0643e-07 0.0124074)
(2.22448e-06 9.08618e-07 0.0124286)
(1.99607e-06 1.17628e-06 0.0124308)
(1.37436e-06 1.37436e-06 0.0124304)
(4.88981e-07 1.48011e-06 0.01243)
(-4.88987e-07 1.48011e-06 0.01243)
(-1.37437e-06 1.37437e-06 0.0124304)
(-1.99607e-06 1.1763e-06 0.0124308)
(-2.22447e-06 9.08626e-07 0.0124286)
(-2.02146e-06 6.06436e-07 0.0124074)
(2.17215e-06 2.14944e-07 0.0124133)
(2.39522e-06 3.22443e-07 0.0124297)
(2.14902e-06 4.18139e-07 0.0124307)
(1.48011e-06 4.88978e-07 0.01243)
(5.26769e-07 5.26767e-07 0.0124295)
(-5.26765e-07 5.26771e-07 0.0124295)
(-1.48011e-06 4.88991e-07 0.01243)
(-2.14902e-06 4.18159e-07 0.0124307)
(-2.39521e-06 3.22457e-07 0.0124297)
(-2.17215e-06 2.14944e-07 0.0124133)
(2.17214e-06 -2.14948e-07 0.0124133)
(2.39522e-06 -3.22461e-07 0.0124297)
(2.14902e-06 -4.18155e-07 0.0124307)
(1.48012e-06 -4.88984e-07 0.01243)
(5.26774e-07 -5.26762e-07 0.0124295)
(-5.26762e-07 -5.2676e-07 0.0124295)
(-1.48011e-06 -4.88978e-07 0.01243)
(-2.14902e-06 -4.18147e-07 0.0124307)
(-2.39521e-06 -3.22458e-07 0.0124297)
(-2.17215e-06 -2.14955e-07 0.0124133)
(2.02146e-06 -6.06429e-07 0.0124074)
(2.22448e-06 -9.08623e-07 0.0124286)
(1.99607e-06 -1.17629e-06 0.0124308)
(1.37438e-06 -1.37436e-06 0.0124304)
(4.88993e-07 -1.4801e-06 0.01243)
(-4.8898e-07 -1.4801e-06 0.01243)
(-1.37437e-06 -1.37437e-06 0.0124304)
(-1.99607e-06 -1.17629e-06 0.0124308)
(-2.22447e-06 -9.08627e-07 0.0124286)
(-2.02146e-06 -6.06436e-07 0.0124074)
(1.73575e-06 -8.86779e-07 0.0123899)
(1.90508e-06 -1.3241e-06 0.0124243)
(1.70994e-06 -1.70993e-06 0.0124303)
(1.1763e-06 -1.99606e-06 0.0124308)
(4.18159e-07 -2.14901e-06 0.0124307)
(-4.18153e-07 -2.14902e-06 0.0124307)
(-1.17629e-06 -1.99607e-06 0.0124308)
(-1.70994e-06 -1.70994e-06 0.0124303)
(-1.90508e-06 -1.3241e-06 0.0124243)
(-1.73576e-06 -8.8679e-07 0.0123899)
(1.37737e-06 -9.67582e-07 0.0123412)
(1.47674e-06 -1.47673e-06 0.0124071)
(1.32411e-06 -1.90507e-06 0.0124243)
(9.08631e-07 -2.22446e-06 0.0124286)
(3.2245e-07 -2.39521e-06 0.0124297)
(-3.22464e-07 -2.39521e-06 0.0124297)
(-9.08626e-07 -2.22447e-06 0.0124286)
(-1.3241e-06 -1.90508e-06 0.0124243)
(-1.47674e-06 -1.47674e-06 0.0124071)
(-1.37738e-06 -9.67597e-07 0.0123412)
(9.31125e-07 -9.31118e-07 0.0122147)
(9.67594e-07 -1.37736e-06 0.0123412)
(8.86798e-07 -1.73574e-06 0.0123899)