/*--------------------------------*- C++ -*----------------------------------*\
| =========                 |                                                 |
| \\      /  F ield         | OpenFOAM: The Open Source CFD Toolbox           |
|  \\    /   O peration     | Version:  2412                                  |
|   \\  /    A nd           | Website:  www.openfoam.com                      |
|    \\/     M anipulation  |                                                 |
\*---------------------------------------------------------------------------*/
FoamFile
{
    version     2.0;
    format      ascii;
    arch        "LSB;label=32;scalar=64";
    class       surfaceScalarField;
    location    "4.2";
    object      phi;
}
// * * * * * * * * * * * * * * * * * * * * * * * * * * * * * * * * * * * * * //

dimensions      [0 3 -1 0 0 0 0];

oriented        oriented;

internalField   nonuniform List<scalar> 
43700
(
1.81651e-07
1.81651e-07
5.49184e-07
-2.21234e-07
-2.21234e-07
1.34175e-07
1.60971e-07
5.92906e-07
-1.97017e-07
8.8767e-08
1.47751e-07
6.23969e-07
-1.86882e-07
4.40143e-08
1.38956e-07
6.43913e-07
-1.78403e-07
9.6549e-17
1.34731e-07
6.53715e-07
-1.74502e-07
-4.40143e-08
1.34731e-07
6.53715e-07
-1.74502e-07
-8.8767e-08
1.38956e-07
6.43913e-07
-1.78403e-07
-1.34175e-07
1.47751e-07
6.23969e-07
-1.86882e-07
-1.81651e-07
1.60971e-07
5.92906e-07
-1.97017e-07
1.81651e-07
5.49184e-07
-2.21234e-07
-2.21234e-07
1.60971e-07
1.34175e-07
5.92906e-07
-1.97017e-07
1.1949e-07
1.1949e-07
6.28805e-07
7.8593e-08
1.08415e-07
6.53924e-07
3.88721e-08
1.01043e-07
6.7013e-07
1.17454e-15
9.74436e-08
6.78131e-07
-3.88721e-08
9.74436e-08
6.78131e-07
-7.8593e-08
1.01043e-07
6.7013e-07
-1.1949e-07
1.08415e-07
6.53924e-07
-1.60971e-07
1.1949e-07
6.28805e-07
1.34175e-07
5.92906e-07
-1.97017e-07
1.47751e-07
8.8767e-08
6.23969e-07
-1.86882e-07
1.08415e-07
7.8593e-08
6.53924e-07
7.08191e-08
7.08191e-08
6.75066e-07
3.49141e-08
6.56396e-08
6.88871e-07
5.34752e-16
6.30982e-08
6.95738e-07
-3.49141e-08
6.30982e-08
6.95738e-07
-7.08191e-08
6.56396e-08
6.88871e-07
-1.08415e-07
7.08191e-08
6.75066e-07
-1.47751e-07
7.8593e-08
6.53924e-07
8.8767e-08
6.23969e-07
-1.86882e-07
1.38956e-07
4.40143e-08
6.43913e-07
-1.78403e-07
1.01043e-07
3.88721e-08
6.7013e-07
6.56396e-08
3.49141e-08
6.88871e-07
3.22665e-08
3.22665e-08
7.01249e-07
-2.96149e-16
3.09636e-08
7.07443e-07
-3.22665e-08
3.09636e-08
7.07443e-07
-6.56396e-08
3.22665e-08
7.01249e-07
-1.01043e-07
3.49141e-08
6.88871e-07
-1.38956e-07
3.88721e-08
6.7013e-07
4.40143e-08
6.43913e-07
-1.78403e-07
1.34731e-07
4.46471e-16
6.53715e-07
-1.74502e-07
9.74436e-08
-1.18492e-16
6.78131e-07
6.30982e-08
8.72552e-18
6.95738e-07
3.09636e-08
2.2748e-16
7.07443e-07
2.27458e-17
-2.37336e-17
7.1332e-07
-3.09636e-08
5.64092e-16
7.1332e-07
-6.30982e-08
1.07706e-15
7.07443e-07
-9.74436e-08
5.21972e-16
6.95738e-07
-1.34731e-07
-3.33568e-16
6.78131e-07
1.69645e-16
6.53715e-07
-1.74502e-07
1.34731e-07
-4.40143e-08
6.53715e-07
-1.74502e-07
9.74436e-08
-3.88721e-08
6.78131e-07
6.30982e-08
-3.49141e-08
6.95738e-07
3.09636e-08
-3.22665e-08
7.07443e-07
7.27614e-16
-3.09636e-08
7.1332e-07
-3.09636e-08
-3.09636e-08
7.1332e-07
-6.30982e-08
-3.22665e-08
7.07443e-07
-9.74436e-08
-3.49141e-08
6.95738e-07
-1.34731e-07
-3.88721e-08
6.78131e-07
-4.40143e-08
6.53715e-07
-1.74502e-07
1.38956e-07
-8.8767e-08
6.43913e-07
-1.78403e-07
1.01043e-07
-7.8593e-08
6.7013e-07
6.56396e-08
-7.08191e-08
6.88871e-07
3.22665e-08
-6.56396e-08
7.01249e-07
4.24221e-16
-6.30982e-08
7.07443e-07
-3.22664e-08
-6.30982e-08
7.07443e-07
-6.56396e-08
-6.56396e-08
7.01249e-07
-1.01043e-07
-7.0819e-08
6.88871e-07
-1.38956e-07
-7.8593e-08
6.7013e-07
-8.8767e-08
6.43913e-07
-1.78403e-07
1.47751e-07
-1.34175e-07
6.23969e-07
-1.86882e-07
1.08415e-07
-1.1949e-07
6.53924e-07
7.08191e-08
-1.08415e-07
6.75066e-07
3.49141e-08
-1.01043e-07
6.88871e-07
-1.10394e-16
-9.74436e-08
6.95738e-07
-3.49141e-08
-9.74436e-08
6.95738e-07
-7.08191e-08
-1.01043e-07
6.88871e-07
-1.08415e-07
-1.08415e-07
6.75066e-07
-1.47751e-07
-1.1949e-07
6.53924e-07
-1.34175e-07
6.23969e-07
-1.86882e-07
1.60971e-07
-1.81651e-07
5.92906e-07
-1.97017e-07
1.1949e-07
-1.60971e-07
6.28805e-07
7.8593e-08
-1.47751e-07
6.53924e-07
3.88721e-08
-1.38956e-07
6.7013e-07
-4.44038e-16
-1.34731e-07
6.78131e-07
-3.88721e-08
-1.34731e-07
6.78131e-07
-7.8593e-08
-1.38956e-07
6.7013e-07
-1.1949e-07
-1.47751e-07
6.53924e-07
-1.60971e-07
-1.60971e-07
6.28805e-07
-1.81651e-07
5.92906e-07
-1.97017e-07
1.81651e-07
5.49184e-07
-2.21234e-07
-2.21234e-07
1.34175e-07
5.92906e-07
-1.97017e-07
8.8767e-08
6.23969e-07
-1.86882e-07
4.40143e-08
6.43913e-07
-1.78403e-07
7.14636e-16
6.53715e-07
-1.74502e-07
-4.40143e-08
6.53715e-07
-1.74502e-07
-8.8767e-08
6.43913e-07
-1.78403e-07
-1.34175e-07
6.23969e-07
-1.86882e-07
-1.81651e-07
5.92906e-07
-1.97017e-07
5.49184e-07
-2.21234e-07
-2.21234e-07
9.82121e-08
9.82121e-08
5.80259e-07
-1.1375e-07
-1.1375e-07
7.69498e-08
9.61103e-08
6.30751e-07
-1.12693e-07
5.26734e-08
9.4091e-08
6.65755e-07
-1.116e-07
2.66674e-08
9.23382e-08
6.87799e-07
-1.10219e-07
-3.04353e-16
9.15281e-08
6.98522e-07
-1.09668e-07
-2.66674e-08
9.15282e-08
6.98522e-07
-1.09668e-07
-5.26734e-08
9.23382e-08
6.87799e-07
-1.10219e-07
-7.69498e-08
9.4091e-08
6.65755e-07
-1.116e-07
-9.82121e-08
9.61103e-08
6.30751e-07
-1.12693e-07
9.82121e-08
5.80259e-07
-1.1375e-07
-1.1375e-07
9.61103e-08
7.69498e-08
6.30751e-07
-1.12693e-07
7.47678e-08
7.47678e-08
6.7149e-07
5.09899e-08
7.27822e-08
6.9901e-07
2.57896e-08
7.1248e-08
7.1642e-07
1.01085e-15
7.05022e-08
7.24947e-07
-2.57896e-08
7.05022e-08
7.24947e-07
-5.09899e-08
7.1248e-08
7.1642e-07
-7.47678e-08
7.27822e-08
6.9901e-07
-9.61103e-08
7.47678e-08
6.7149e-07
7.69498e-08
6.30751e-07
-1.12693e-07
9.4091e-08
5.26734e-08
6.65755e-07
-1.116e-07
7.27822e-08
5.09899e-08
6.9901e-07
4.95047e-08
4.95047e-08
7.21621e-07
2.50307e-08
4.84157e-08
7.36177e-07
8.69611e-16
4.78778e-08
7.43393e-07
-2.50307e-08
4.78778e-08
7.43393e-07
-4.95047e-08
4.84157e-08
7.36177e-07
-7.27822e-08
4.95047e-08
7.21621e-07
-9.4091e-08
5.09899e-08
6.9901e-07
5.26734e-08
6.65755e-07
-1.116e-07
9.23382e-08
2.66674e-08
6.87799e-07
-1.10219e-07
7.1248e-08
2.57896e-08
7.1642e-07
4.84157e-08
2.50307e-08
7.36177e-07
2.44815e-08
2.44815e-08
7.49117e-07
6.96777e-16
2.42076e-08
7.55595e-07
-2.44815e-08
2.42076e-08
7.55595e-07
-4.84157e-08
2.44815e-08
7.49117e-07
-7.1248e-08
2.50307e-08
7.36177e-07
-9.23382e-08
2.57896e-08
7.16421e-07
2.66674e-08
6.87799e-07
-1.10219e-07
9.15281e-08
-5.11395e-16
6.98522e-07
-1.09668e-07
7.05022e-08
9.02153e-16
7.24947e-07
4.78778e-08
1.03086e-15
7.43393e-07
2.42076e-08
6.70156e-16
7.55595e-07
9.08039e-16
8.83117e-16
7.61735e-07
-2.42076e-08
1.41699e-15
7.61735e-07
-4.78778e-08
1.56925e-15
7.55595e-07
-7.05022e-08
9.22342e-16
7.43393e-07
-9.15281e-08
-7.7242e-16
7.24947e-07
-1.31883e-15
6.98522e-07
-1.09668e-07
9.15282e-08
-2.66674e-08
6.98522e-07
-1.09668e-07
7.05022e-08
-2.57896e-08
7.24947e-07
4.78778e-08
-2.50307e-08
7.43393e-07
2.42076e-08
-2.44815e-08
7.55595e-07
1.48294e-15
-2.42076e-08
7.61735e-07
-2.42076e-08
-2.42076e-08
7.61735e-07
-4.78778e-08
-2.44815e-08
7.55595e-07
-7.05022e-08
-2.50307e-08
7.43393e-07
-9.15281e-08
-2.57896e-08
7.24947e-07
-2.66674e-08
6.98522e-07
-1.09668e-07
9.23382e-08
-5.26734e-08
6.87799e-07
-1.10219e-07
7.1248e-08
-5.09899e-08
7.1642e-07
4.84157e-08
-4.95047e-08
7.36177e-07
2.44815e-08
-4.84157e-08
7.49117e-07
1.53849e-15
-4.78778e-08
7.55595e-07
-2.44815e-08
-4.78778e-08
7.55595e-07
-4.84157e-08
-4.84157e-08
7.49117e-07
-7.1248e-08
-4.95047e-08
7.36177e-07
-9.23382e-08
-5.09899e-08
7.1642e-07
-5.26734e-08
6.87799e-07
-1.10219e-07
9.4091e-08
-7.69498e-08
6.65755e-07
-1.116e-07
7.27822e-08
-7.47678e-08
6.9901e-07
4.95047e-08
-7.27822e-08
7.21621e-07
2.50307e-08
-7.1248e-08
7.36177e-07
6.09769e-16
-7.05022e-08
7.43393e-07
-2.50307e-08
-7.05022e-08
7.43393e-07
-4.95047e-08
-7.1248e-08
7.36177e-07
-7.27822e-08
-7.27822e-08
7.21621e-07
-9.4091e-08
-7.47678e-08
6.9901e-07
-7.69499e-08
6.65755e-07
-1.116e-07
9.61103e-08
-9.82121e-08
6.30751e-07
-1.12693e-07
7.47678e-08
-9.61103e-08
6.7149e-07
5.09899e-08
-9.4091e-08
6.9901e-07
2.57896e-08
-9.23382e-08
7.1642e-07
-1.59026e-15
-9.15281e-08
7.24947e-07
-2.57896e-08
-9.15281e-08
7.24947e-07
-5.09899e-08
-9.23382e-08
7.1642e-07
-7.47678e-08
-9.4091e-08
6.9901e-07
-9.61103e-08
-9.61103e-08
6.7149e-07
-9.82121e-08
6.30751e-07
-1.12693e-07
9.82121e-08
5.80259e-07
-1.1375e-07
-1.1375e-07
7.69498e-08
6.30751e-07
-1.12693e-07
5.26734e-08
6.65755e-07
-1.116e-07
2.66674e-08
6.87799e-07
-1.10219e-07
-1.74816e-15
6.98522e-07
-1.09668e-07
-2.66674e-08
6.98522e-07
-1.09668e-07
-5.26734e-08
6.87799e-07
-1.10219e-07
-7.69498e-08
6.65755e-07
-1.116e-07
-9.82121e-08
6.30751e-07
-1.12693e-07
5.80259e-07
-1.1375e-07
-1.1375e-07
6.01589e-08
6.01589e-08
5.87319e-07
-6.36893e-08
-6.36893e-08
5.04006e-08
6.33274e-08
6.44493e-07
-6.7311e-08
3.60311e-08
6.49674e-08
6.84396e-07
-6.9239e-08
1.87189e-08
6.56398e-08
7.09668e-07
-7.01965e-08
-6.33752e-16
6.59377e-08
7.21988e-07
-7.0685e-08
-1.87189e-08
6.59377e-08
7.21988e-07
-7.0685e-08
-3.60311e-08
6.56398e-08
7.09668e-07
-7.01965e-08
-5.04006e-08
6.49674e-08
6.84396e-07
-6.9239e-08
-6.01589e-08
6.33274e-08
6.44493e-07
-6.7311e-08
6.01589e-08
5.87319e-07
-6.36893e-08
-6.36893e-08
6.33274e-08
5.04006e-08
6.44493e-07
-6.7311e-08
5.28903e-08
5.28903e-08
6.92364e-07
3.78003e-08
5.4131e-08
7.24937e-07
1.96415e-08
5.45901e-08
7.45629e-07
2.3158e-15
5.47546e-08
7.55772e-07
-1.96415e-08
5.47546e-08
7.55772e-07
-3.78003e-08
5.45901e-08
7.45629e-07
-5.28903e-08
5.4131e-08
7.24937e-07
-6.33274e-08
5.28903e-08
6.92364e-07
5.04006e-08
6.44493e-07
-6.7311e-08
6.49674e-08
3.60311e-08
6.84396e-07
-6.9239e-08
5.4131e-08
3.78003e-08
7.24937e-07
3.8634e-08
3.8634e-08
7.52615e-07
2.00668e-08
3.89148e-08
7.7042e-07
1.96718e-15
3.89932e-08
7.79221e-07
-2.00668e-08
3.89932e-08
7.79221e-07
-3.8634e-08
3.89148e-08
7.7042e-07
-5.4131e-08
3.8634e-08
7.52615e-07
-6.49674e-08
3.78003e-08
7.24937e-07
3.60311e-08
6.84396e-07
-6.9239e-08
6.56398e-08
1.87189e-08
7.09668e-07
-7.01965e-08
5.45901e-08
1.96415e-08
7.45629e-07
3.89148e-08
2.00668e-08
7.7042e-07
2.02021e-08
2.02021e-08
7.86543e-07
1.37384e-15
2.02328e-08
7.94557e-07
-2.02021e-08
2.02328e-08
7.94557e-07
-3.89148e-08
2.02021e-08
7.86543e-07
-5.45901e-08
2.00668e-08
7.7042e-07
-6.56398e-08
1.96415e-08
7.45629e-07
1.87189e-08
7.09668e-07
-7.01965e-08
6.59377e-08
4.29772e-16
7.21988e-07
-7.0685e-08
5.47546e-08
2.76917e-15
7.55772e-07
3.89932e-08
2.41316e-15
7.79221e-07
2.02328e-08
2.0076e-15
7.94557e-07
1.04806e-15
1.53673e-15
8.02201e-07
-2.02328e-08
1.69263e-15
8.02201e-07
-3.89932e-08
1.12787e-15
7.94557e-07
-5.47546e-08
-2.55185e-17
7.79221e-07
-6.59377e-08
-2.52259e-15
7.55772e-07
-3.49828e-15
7.21988e-07
-7.0685e-08
6.59377e-08
-1.87189e-08
7.21988e-07
-7.0685e-08
5.47546e-08
-1.96415e-08
7.55772e-07
3.89932e-08
-2.00668e-08
7.79221e-07
2.02328e-08
-2.02021e-08
7.94557e-07
1.10682e-15
-2.02328e-08
8.02201e-07
-2.02328e-08
-2.02328e-08
8.02201e-07
-3.89932e-08
-2.02021e-08
7.94557e-07
-5.47546e-08
-2.00668e-08
7.79221e-07
-6.59377e-08
-1.96415e-08
7.55772e-07
-1.87189e-08
7.21988e-07
-7.06849e-08
6.56398e-08
-3.60311e-08
7.09668e-07
-7.01965e-08
5.45901e-08
-3.78003e-08
7.45629e-07
3.89148e-08
-3.8634e-08
7.7042e-07
2.02021e-08
-3.89148e-08
7.86543e-07
5.6783e-16
-3.89932e-08
7.94557e-07
-2.02021e-08
-3.89932e-08
7.94557e-07
-3.89148e-08
-3.89148e-08
7.86543e-07
-5.45901e-08
-3.8634e-08
7.7042e-07
-6.56398e-08
-3.78003e-08
7.45629e-07
-3.60311e-08
7.09668e-07
-7.01965e-08
6.49674e-08
-5.04006e-08
6.84396e-07
-6.9239e-08
5.4131e-08
-5.28903e-08
7.24937e-07
3.8634e-08
-5.4131e-08
7.52615e-07
2.00668e-08
-5.45901e-08
7.7042e-07
-1.62892e-16
-5.47546e-08
7.79221e-07
-2.00668e-08
-5.47546e-08
7.79221e-07
-3.8634e-08
-5.45901e-08
7.7042e-07
-5.4131e-08
-5.4131e-08
7.52615e-07
-6.49674e-08
-5.28903e-08
7.24937e-07
-5.04006e-08
6.84396e-07
-6.9239e-08
6.33274e-08
-6.01589e-08
6.44493e-07
-6.7311e-08
5.28903e-08
-6.33274e-08
6.92364e-07
3.78003e-08
-6.49674e-08
7.24937e-07
1.96415e-08
-6.56398e-08
7.45629e-07
-2.27559e-15
-6.59377e-08
7.55772e-07
-1.96415e-08
-6.59377e-08
7.55772e-07
-3.78003e-08
-6.56398e-08
7.45629e-07
-5.28903e-08
-6.49674e-08
7.24937e-07
-6.33274e-08
-6.33274e-08
6.92364e-07
-6.0159e-08
6.44493e-07
-6.7311e-08
6.01589e-08
5.87319e-07
-6.36893e-08
-6.36893e-08
5.04006e-08
6.44493e-07
-6.7311e-08
3.60311e-08
6.84396e-07
-6.9239e-08
1.87189e-08
7.09668e-07
-7.01965e-08
-2.04324e-15
7.21988e-07
-7.0685e-08
-1.87189e-08
7.21988e-07
-7.0685e-08
-3.60311e-08
7.09668e-07
-7.01965e-08
-5.04006e-08
6.84396e-07
-6.9239e-08
-6.01589e-08
6.44493e-07
-6.7311e-08
5.87319e-07
-6.36893e-08
-6.36893e-08
2.16827e-08
2.16827e-08
5.86172e-07
-2.11089e-08
-2.11089e-08
1.96016e-08
2.53823e-08
6.45852e-07
-2.46608e-08
1.46999e-08
2.78393e-08
6.8818e-07
-2.67217e-08
7.85858e-09
2.93084e-08
7.15306e-07
-2.81055e-08
-3.6678e-16
3.00203e-08
7.28613e-07
-2.8787e-08
-7.85858e-09
3.00203e-08
7.28613e-07
-2.8787e-08
-1.46999e-08
2.93084e-08
7.15306e-07
-2.81055e-08
-1.96016e-08
2.78393e-08
6.8818e-07
-2.67217e-08
-2.16827e-08
2.53822e-08
6.45852e-07
-2.46608e-08
2.16827e-08
5.86172e-07
-2.11089e-08
-2.11089e-08
2.53823e-08
1.96016e-08
6.45852e-07
-2.46608e-08
2.27865e-08
2.27865e-08
6.97555e-07
1.70889e-08
2.49721e-08
7.33502e-07
9.12794e-09
2.62559e-08
7.56643e-07
1.1573e-15
2.68602e-08
7.6806e-07
-9.12793e-09
2.68602e-08
7.6806e-07
-1.70889e-08
2.62559e-08
7.56643e-07
-2.27865e-08
2.49721e-08
7.33502e-07
-2.53823e-08
2.27865e-08
6.97555e-07
1.96016e-08
6.45852e-07
-2.46608e-08
2.78393e-08
1.46999e-08
6.8818e-07
-2.67217e-08
2.49721e-08
1.70889e-08
7.33502e-07
1.8696e-08
1.8696e-08
7.65167e-07
9.97563e-09
1.9626e-08
7.8577e-07
1.22992e-15
2.00542e-08
7.96002e-07
-9.97563e-09
2.00542e-08
7.96002e-07
-1.8696e-08
1.9626e-08
7.8577e-07
-2.49721e-08
1.8696e-08
7.65167e-07
-2.78393e-08
1.70889e-08
7.33502e-07
1.46999e-08
6.8818e-07
-2.67217e-08
2.93084e-08
7.85858e-09
7.15306e-07
-2.81055e-08
2.62559e-08
9.12794e-09
7.56643e-07
1.9626e-08
9.97563e-09
7.8577e-07
1.0462e-08
1.0462e-08
8.04871e-07
9.29644e-16
1.06832e-08
8.1439e-07
-1.0462e-08
1.06832e-08
8.1439e-07
-1.9626e-08
1.0462e-08
8.04871e-07
-2.62559e-08
9.97563e-09
7.8577e-07
-2.93084e-08
9.12793e-09
7.56643e-07
7.85858e-09
7.15306e-07
-2.81055e-08
3.00203e-08
1.34528e-15
7.28613e-07
-2.8787e-08
2.68602e-08
1.21298e-15
7.6806e-07
2.00542e-08
1.11874e-15
7.96002e-07
1.06832e-08
1.22596e-15
8.1439e-07
1.05832e-15
1.14302e-15
8.23567e-07
-1.06832e-08
1.60228e-15
8.23567e-07
-2.00542e-08
1.32185e-15
8.1439e-07
-2.68602e-08
5.78617e-16
7.96002e-07
-3.00203e-08
-2.08759e-15
7.6806e-07
-2.85699e-15
7.28613e-07
-2.8787e-08
3.00203e-08
-7.85858e-09
7.28613e-07
-2.8787e-08
2.68602e-08
-9.12793e-09
7.6806e-07
2.00542e-08
-9.97563e-09
7.96002e-07
1.06832e-08
-1.0462e-08
8.1439e-07
1.41507e-15
-1.06832e-08
8.23567e-07
-1.06832e-08
-1.06832e-08
8.23567e-07
-2.00542e-08
-1.0462e-08
8.1439e-07
-2.68602e-08
-9.97563e-09
7.96002e-07
-3.00203e-08
-9.12794e-09
7.6806e-07
-7.85859e-09
7.28613e-07
-2.8787e-08
2.93084e-08
-1.46999e-08
7.15306e-07
-2.81055e-08
2.62559e-08
-1.70889e-08
7.56643e-07
1.9626e-08
-1.8696e-08
7.8577e-07
1.0462e-08
-1.9626e-08
8.04871e-07
1.07841e-15
-2.00542e-08
8.1439e-07
-1.0462e-08
-2.00542e-08
8.1439e-07
-1.9626e-08
-1.9626e-08
8.04871e-07
-2.62559e-08
-1.8696e-08
7.8577e-07
-2.93084e-08
-1.70889e-08
7.56643e-07
-1.46999e-08
7.15306e-07
-2.81055e-08
2.78393e-08
-1.96016e-08
6.8818e-07
-2.67217e-08
2.49721e-08
-2.27865e-08
7.33502e-07
1.8696e-08
-2.49721e-08
7.65167e-07
9.97563e-09
-2.62559e-08
7.8577e-07
7.32943e-16
-2.68602e-08
7.96002e-07
-9.97563e-09
-2.68602e-08
7.96002e-07
-1.8696e-08
-2.62559e-08
7.8577e-07
-2.49721e-08
-2.49721e-08
7.65167e-07
-2.78393e-08
-2.27865e-08
7.33502e-07
-1.96016e-08
6.8818e-07
-2.67217e-08
2.53822e-08
-2.16827e-08
6.45852e-07
-2.46608e-08
2.27865e-08
-2.53823e-08
6.97555e-07
1.70889e-08
-2.78393e-08
7.33502e-07
9.12793e-09
-2.93084e-08
7.56643e-07
-1.20088e-15
-3.00203e-08
7.6806e-07
-9.12794e-09
-3.00203e-08
7.6806e-07
-1.70889e-08
-2.93084e-08
7.56643e-07
-2.27865e-08
-2.78393e-08
7.33502e-07
-2.53823e-08
-2.53823e-08
6.97555e-07
-2.16827e-08
6.45852e-07
-2.46608e-08
2.16827e-08
5.86172e-07
-2.11089e-08
-2.11089e-08
1.96016e-08
6.45852e-07
-2.46608e-08
1.46999e-08
6.8818e-07
-2.67217e-08
7.85858e-09
7.15306e-07
-2.81055e-08
-1.99559e-15
7.28613e-07
-2.8787e-08
-7.85859e-09
7.28613e-07
-2.8787e-08
-1.46999e-08
7.15306e-07
-2.81055e-08
-1.96016e-08
6.8818e-07
-2.67217e-08
-2.16827e-08
6.45852e-07
-2.46608e-08
5.86172e-07
-2.11089e-08
-2.11089e-08
7.85096e-09
7.85096e-09
5.84862e-07
-7.19578e-09
-7.19578e-09
7.36131e-09
9.58588e-09
6.45454e-07
-8.69747e-09
5.65351e-09
1.08058e-08
6.88741e-07
-9.65906e-09
3.06543e-09
1.1588e-08
7.1664e-07
-1.03339e-08
4.00338e-16
1.19733e-08
7.30369e-07
-1.06636e-08
-3.06543e-09
1.19733e-08
7.30369e-07
-1.06636e-08
-5.65351e-09
1.1588e-08
7.1664e-07
-1.03339e-08
-7.36131e-09
1.08058e-08
6.88741e-07
-9.65905e-09
-7.85095e-09
9.58587e-09
6.45454e-07
-8.69747e-09
7.85096e-09
5.84862e-07
-7.19577e-09
-7.19578e-09
9.58588e-09
7.36131e-09
6.45454e-07
-8.69748e-09
8.97797e-09
8.97797e-09
6.98771e-07
6.90884e-09
1.0143e-08
7.36234e-07
3.74432e-09
1.08716e-08
7.60523e-07
2.00981e-15
1.12261e-08
7.72551e-07
-3.74432e-09
1.12261e-08
7.72551e-07
-6.90884e-09
1.08716e-08
7.60523e-07
-8.97797e-09
1.0143e-08
7.36234e-07
-9.58587e-09
8.97797e-09
6.98771e-07
7.36131e-09
6.45454e-07
-8.69747e-09
1.08058e-08
5.65351e-09
6.88741e-07
-9.65906e-09
1.0143e-08
6.90884e-09
7.36234e-07
7.80868e-09
7.80868e-09
7.69836e-07
4.23118e-09
8.36505e-09
7.91854e-07
1.80488e-15
8.63276e-09
8.02827e-07
-4.23118e-09
8.63276e-09
8.02827e-07
-7.80868e-09
8.36505e-09
7.91854e-07
-1.0143e-08
7.80867e-09
7.69836e-07
-1.08058e-08
6.90884e-09
7.36234e-07
5.65351e-09
6.88741e-07
-9.65905e-09
1.1588e-08
3.06543e-09
7.1664e-07
-1.03339e-08
1.08716e-08
3.74432e-09
7.60523e-07
8.36505e-09
4.23118e-09
7.91854e-07
4.53189e-09
4.53189e-09
8.12537e-07
1.29504e-15
4.67571e-09
8.22879e-07
-4.53188e-09
4.67571e-09
8.22879e-07
-8.36505e-09
4.53189e-09
8.12537e-07
-1.08716e-08
4.23118e-09
7.91854e-07
-1.1588e-08
3.74432e-09
7.60523e-07
3.06543e-09
7.1664e-07
-1.03339e-08
1.19733e-08
4.55325e-16
7.30369e-07
-1.06636e-08
1.12261e-08
2.04664e-15
7.72551e-07
8.63275e-09
2.16543e-15
8.02827e-07
4.6757e-09
1.74141e-15
8.22879e-07
8.79446e-16
1.32388e-15
8.32918e-07
-4.6757e-09
1.15015e-15
8.32918e-07
-8.63275e-09
6.4764e-16
8.22879e-07
-1.12261e-08
-6.88551e-17
8.02827e-07
-1.19733e-08
-8.16333e-16
7.72551e-07
-3.84204e-17
7.30369e-07
-1.06636e-08
1.19733e-08
-3.06543e-09
7.30369e-07
-1.06636e-08
1.12261e-08
-3.74432e-09
7.72551e-07
8.63275e-09
-4.23118e-09
8.02827e-07
4.6757e-09
-4.53188e-09
8.22879e-07
6.35355e-16
-4.6757e-09
8.32918e-07
-4.6757e-09
-4.6757e-09
8.32918e-07
-8.63275e-09
-4.53188e-09
8.22879e-07
-1.12261e-08
-4.23118e-09
8.02827e-07
-1.19733e-08
-3.74432e-09
7.72551e-07
-3.06543e-09
7.30369e-07
-1.06636e-08
1.1588e-08
-5.65351e-09
7.1664e-07
-1.03339e-08
1.08716e-08
-6.90884e-09
7.60523e-07
8.36505e-09
-7.80867e-09
7.91854e-07
4.53189e-09
-8.36504e-09
8.12537e-07
2.52679e-16
-8.63275e-09
8.22879e-07
-4.53189e-09
-8.63275e-09
8.22879e-07
-8.36505e-09
-8.36505e-09
8.12537e-07
-1.08716e-08
-7.80867e-09
7.91854e-07
-1.1588e-08
-6.90884e-09
7.60523e-07
-5.65351e-09
7.1664e-07
-1.03339e-08
1.08058e-08
-7.36131e-09
6.88741e-07
-9.65905e-09
1.0143e-08
-8.97797e-09
7.36234e-07
7.80868e-09
-1.0143e-08
7.69836e-07
4.23118e-09
-1.08716e-08
7.91854e-07
-1.50223e-16
-1.12261e-08
8.02827e-07
-4.23118e-09
-1.12261e-08
8.02827e-07
-7.80867e-09
-1.08716e-08
7.91854e-07
-1.0143e-08
-1.0143e-08
7.69836e-07
-1.08058e-08
-8.97797e-09
7.36234e-07
-7.36131e-09
6.88741e-07
-9.65905e-09
9.58587e-09
-7.85096e-09
6.45454e-07
-8.69747e-09
8.97796e-09
-9.58587e-09
6.98771e-07
6.90883e-09
-1.08058e-08
7.36234e-07
3.74431e-09
-1.1588e-08
7.60523e-07
-1.40468e-15
-1.19733e-08
7.72551e-07
-3.74432e-09
-1.19733e-08
7.72551e-07
-6.90884e-09
-1.1588e-08
7.60523e-07
-8.97797e-09
-1.08058e-08
7.36234e-07
-9.58587e-09
-9.58587e-09
6.98771e-07
-7.85096e-09
6.45454e-07
-8.69747e-09
7.85096e-09
5.84862e-07
-7.19577e-09
-7.19577e-09
7.36131e-09
6.45454e-07
-8.69747e-09
5.65351e-09
6.88741e-07
-9.65905e-09
3.06542e-09
7.1664e-07
-1.03339e-08
-7.78658e-16
7.30369e-07
-1.06636e-08
-3.06543e-09
7.30369e-07
-1.06636e-08
-5.65351e-09
7.1664e-07
-1.03339e-08
-7.36132e-09
6.88741e-07
-9.65905e-09
-7.85096e-09
6.45454e-07
-8.69747e-09
5.84862e-07
-7.19578e-09
-7.19578e-09
2.5619e-09
2.5619e-09
5.84035e-07
-2.14877e-09
-2.14877e-09
2.54384e-09
3.35114e-09
6.44911e-07
-2.79035e-09
2.0234e-09
3.9261e-09
6.88558e-07
-3.22231e-09
1.11964e-09
4.30892e-09
7.16771e-07
-3.53637e-09
8.72199e-17
4.49854e-09
7.30678e-07
-3.68802e-09
-1.11964e-09
4.49854e-09
7.30678e-07
-3.68802e-09
-2.0234e-09
4.30892e-09
7.16771e-07
-3.53637e-09
-2.54384e-09
3.9261e-09
6.88558e-07
-3.22231e-09
-2.5619e-09
3.35114e-09
6.44911e-07
-2.79035e-09
2.5619e-09
5.84035e-07
-2.14877e-09
-2.14877e-09
3.35114e-09
2.54384e-09
6.44911e-07
-2.79035e-09
3.30807e-09
3.30807e-09
6.98857e-07
2.62653e-09
3.87602e-09
7.36965e-07
1.44816e-09
4.24299e-09
7.61768e-07
-2.80861e-18
4.42366e-09
7.74074e-07
-1.44816e-09
4.42365e-09
7.74074e-07
-2.62653e-09
4.24299e-09
7.61768e-07
-3.30807e-09
3.87602e-09
7.36965e-07
-3.35114e-09
3.30807e-09
6.98857e-07
2.54384e-09
6.44911e-07
-2.79035e-09
3.9261e-09
2.0234e-09
6.88558e-07
-3.22231e-09
3.87602e-09
2.62653e-09
7.36965e-07
3.07422e-09
3.07422e-09
7.71439e-07
1.69255e-09
3.35939e-09
7.94119e-07
1.27714e-16
3.49838e-09
8.05445e-07
-1.69255e-09
3.49838e-09
8.05445e-07
-3.07422e-09
3.35939e-09
7.94119e-07
-3.87602e-09
3.07422e-09
7.71439e-07
-3.9261e-09
2.62653e-09
7.36965e-07
2.0234e-09
6.88558e-07
-3.22231e-09
4.30892e-09
1.11964e-09
7.16771e-07
-3.53637e-09
4.24299e-09
1.44817e-09
7.61768e-07
3.35939e-09
1.69255e-09
7.94119e-07
1.84782e-09
1.84782e-09
8.1556e-07
6.71088e-16
1.92316e-09
8.26302e-07
-1.84782e-09
1.92316e-09
8.26302e-07
-3.35939e-09
1.84783e-09
8.1556e-07
-4.24299e-09
1.69255e-09
7.94119e-07
-4.30892e-09
1.44816e-09
7.61768e-07
1.11964e-09
7.16771e-07
-3.53637e-09
4.49854e-09
6.1375e-16
7.30678e-07
-3.68802e-09
4.42366e-09
4.065e-16
7.74074e-07
3.49838e-09
1.08571e-16
8.05445e-07
1.92316e-09
4.28774e-16
8.26302e-07
9.88678e-16
8.56723e-16
8.36765e-07
-1.92316e-09
1.1265e-15
8.36765e-07
-3.49838e-09
1.25511e-15
8.26302e-07
-4.42365e-09
7.64312e-16
8.05445e-07
-4.49854e-09
-3.62e-16
7.74074e-07
-2.57466e-16
7.30678e-07
-3.68802e-09
4.49854e-09
-1.11964e-09
7.30678e-07
-3.68802e-09
4.42365e-09
-1.44816e-09
7.74074e-07
3.49838e-09
-1.69255e-09
8.05445e-07
1.92316e-09
-1.84782e-09
8.26302e-07
1.3894e-15
-1.92316e-09
8.36765e-07
-1.92316e-09
-1.92316e-09
8.36765e-07
-3.49838e-09
-1.84782e-09
8.26302e-07
-4.42365e-09
-1.69255e-09
8.05445e-07
-4.49854e-09
-1.44817e-09
7.74074e-07
-1.11964e-09
7.30678e-07
-3.68802e-09
4.30892e-09
-2.0234e-09
7.16771e-07
-3.53637e-09
4.24299e-09
-2.62653e-09
7.61768e-07
3.35939e-09
-3.07422e-09
7.94119e-07
1.84782e-09
-3.35939e-09
8.1556e-07
1.21821e-15
-3.49838e-09
8.26302e-07
-1.84782e-09
-3.49838e-09
8.26302e-07
-3.35939e-09
-3.35939e-09
8.1556e-07
-4.24299e-09
-3.07422e-09
7.94119e-07
-4.30892e-09
-2.62653e-09
7.61768e-07
-2.0234e-09
7.16771e-07
-3.53637e-09
3.9261e-09
-2.54384e-09
6.88558e-07
-3.22231e-09
3.87601e-09
-3.30807e-09
7.36965e-07
3.07422e-09
-3.87602e-09
7.71439e-07
1.69255e-09
-4.24299e-09
7.94119e-07
3.00942e-16
-4.42365e-09
8.05445e-07
-1.69255e-09
-4.42365e-09
8.05445e-07
-3.07422e-09
-4.24299e-09
7.94119e-07
-3.87602e-09
-3.87601e-09
7.71439e-07
-3.9261e-09
-3.30807e-09
7.36965e-07
-2.54384e-09
6.88558e-07
-3.22231e-09
3.35114e-09
-2.5619e-09
6.44911e-07
-2.79035e-09
3.30807e-09
-3.35114e-09
6.98857e-07
2.62653e-09
-3.9261e-09
7.36965e-07
1.44816e-09
-4.30892e-09
7.61768e-07
-6.8129e-16
-4.49854e-09
7.74074e-07
-1.44817e-09
-4.49854e-09
7.74074e-07
-2.62654e-09
-4.30891e-09
7.61768e-07
-3.30807e-09
-3.9261e-09
7.36965e-07
-3.35114e-09
-3.35114e-09
6.98857e-07
-2.5619e-09
6.44911e-07
-2.79035e-09
2.5619e-09
5.84035e-07
-2.14877e-09
-2.14877e-09
2.54384e-09
6.44911e-07
-2.79035e-09
2.0234e-09
6.88558e-07
-3.22231e-09
1.11964e-09
7.16771e-07
-3.53637e-09
-3.99863e-16
7.30678e-07
-3.68802e-09
-1.11964e-09
7.30678e-07
-3.68802e-09
-2.0234e-09
7.16771e-07
-3.53637e-09
-2.54384e-09
6.88558e-07
-3.22231e-09
-2.5619e-09
6.44911e-07
-2.79035e-09
5.84035e-07
-2.14877e-09
-2.14877e-09
7.10434e-10
7.10436e-10
5.83692e-07
-5.38873e-10
-5.38874e-10
7.56575e-10
1.02182e-09
6.4462e-07
-7.77597e-10
6.25689e-10
1.25897e-09
6.8837e-07
-9.40387e-10
3.54074e-10
1.42512e-09
7.16685e-07
-1.06755e-09
5.6623e-16
1.50859e-09
7.30653e-07
-1.12923e-09
-3.54073e-10
1.50859e-09
7.30653e-07
-1.12923e-09
-6.25689e-10
1.42512e-09
7.16685e-07
-1.06755e-09
-7.56575e-10
1.25896e-09
6.8837e-07
-9.40385e-10
-7.10432e-10
1.02181e-09
6.4462e-07
-7.77596e-10
7.10435e-10
5.83692e-07
-5.38872e-10
-5.38873e-10
1.02182e-09
7.56579e-10
6.4462e-07
-7.77597e-10
1.06961e-09
1.06961e-09
6.98762e-07
8.79457e-10
1.31513e-09
7.37099e-07
4.94461e-10
1.48153e-09
7.62096e-07
9.19269e-16
1.56517e-09
7.74512e-07
-4.9446e-10
1.56517e-09
7.74512e-07
-8.79456e-10
1.48153e-09
7.62096e-07
-1.0696e-09
1.31513e-09
7.37099e-07
-1.02181e-09
1.06961e-09
6.98762e-07
7.56578e-10
6.4462e-07
-7.77595e-10
1.25897e-09
6.25693e-10
6.8837e-07
-9.40387e-10
1.31514e-09
8.79459e-10
7.37099e-07
1.07883e-09
1.07883e-09
7.71912e-07
6.05012e-10
1.21192e-09
7.94863e-07
1.33303e-15
1.27839e-09
8.06337e-07
-6.05009e-10
1.27839e-09
8.06337e-07
-1.07883e-09
1.21192e-09
7.94863e-07
-1.31514e-09
1.07883e-09
7.71912e-07
-1.25897e-09
8.79456e-10
7.37099e-07
6.25691e-10
6.8837e-07
-9.40387e-10
1.42512e-09
3.54076e-10
7.16685e-07
-1.06755e-09
1.48153e-09
4.94462e-10
7.62096e-07
1.21192e-09
6.05011e-10
7.94863e-07
6.78588e-10
6.78588e-10
8.16627e-07
1.20043e-15
7.15231e-10
8.27544e-07
-6.78586e-10
7.15231e-10
8.27544e-07
-1.21192e-09
6.78587e-10
8.16627e-07
-1.48153e-09
6.05009e-10
7.94863e-07
-1.42512e-09
4.94461e-10
7.62096e-07
3.54075e-10
7.16685e-07
-1.06755e-09
1.50859e-09
6.83114e-16
7.30653e-07
-1.12923e-09
1.56517e-09
1.4256e-15
7.74512e-07
1.27839e-09
1.2414e-15
8.06337e-07
7.15231e-10
1.19079e-15
8.27544e-07
8.63123e-16
1.16929e-15
8.38195e-07
-7.15229e-10
9.57387e-16
8.38195e-07
-1.27839e-09
7.08902e-16
8.27544e-07
-1.56517e-09
4.88928e-16
8.06337e-07
-1.50859e-09
1.08668e-16
7.74512e-07
1.36548e-17
7.30653e-07
-1.12923e-09
1.50859e-09
-3.54074e-10
7.30653e-07
-1.12923e-09
1.56517e-09
-4.94459e-10
7.74512e-07
1.27839e-09
-6.05009e-10
8.06337e-07
7.15231e-10
-6.78586e-10
8.27544e-07
7.34266e-16
-7.15229e-10
8.38195e-07
-7.15229e-10
-7.15229e-10
8.38195e-07
-1.27839e-09
-6.78586e-10
8.27544e-07
-1.56517e-09
-6.05008e-10
8.06337e-07
-1.50859e-09
-4.9446e-10
7.74512e-07
-3.54075e-10
7.30653e-07
-1.12923e-09
1.42512e-09
-6.25691e-10
7.16685e-07
-1.06755e-09
1.48153e-09
-8.79456e-10
7.62096e-07
1.21192e-09
-1.07883e-09
7.94863e-07
6.78587e-10
-1.21192e-09
8.16627e-07
5.80554e-16
-1.27839e-09
8.27544e-07
-6.78586e-10
-1.27839e-09
8.27544e-07
-1.21192e-09
-1.21192e-09
8.16627e-07
-1.48153e-09
-1.07883e-09
7.94863e-07
-1.42512e-09
-8.79456e-10
7.62096e-07
-6.25692e-10
7.16685e-07
-1.06755e-09
1.25897e-09
-7.56578e-10
6.8837e-07
-9.40387e-10
1.31514e-09
-1.06961e-09
7.37099e-07
1.07883e-09
-1.31513e-09
7.71912e-07
6.0501e-10
-1.48153e-09
7.94863e-07
7.77758e-16
-1.56517e-09
8.06337e-07
-6.05009e-10
-1.56517e-09
8.06337e-07
-1.07883e-09
-1.48153e-09
7.94863e-07
-1.31513e-09
-1.31513e-09
7.71912e-07
-1.25896e-09
-1.06961e-09
7.37099e-07
-7.56578e-10
6.8837e-07
-9.40385e-10
1.02181e-09
-7.10434e-10
6.4462e-07
-7.77596e-10
1.06961e-09
-1.02181e-09
6.98762e-07
8.79457e-10
-1.25897e-09
7.37099e-07
4.94461e-10
-1.42512e-09
7.62096e-07
8.9741e-16
-1.50859e-09
7.74512e-07
-4.94459e-10
-1.50859e-09
7.74512e-07
-8.79454e-10
-1.42512e-09
7.62096e-07
-1.0696e-09
-1.25896e-09
7.37099e-07
-1.02181e-09
-1.02182e-09
6.98762e-07
-7.10435e-10
6.4462e-07
-7.77595e-10
7.10433e-10
5.83692e-07
-5.38873e-10
-5.38873e-10
7.56576e-10
6.4462e-07
-7.77596e-10
6.2569e-10
6.8837e-07
-9.40386e-10
3.54074e-10
7.16685e-07
-1.06755e-09
6.86158e-16
7.30653e-07
-1.12923e-09
-3.54072e-10
7.30653e-07
-1.12923e-09
-6.25689e-10
7.16685e-07
-1.06755e-09
-7.56575e-10
6.8837e-07
-9.40385e-10
-7.10433e-10
6.4462e-07
-7.77596e-10
5.83692e-07
-5.38873e-10
-5.38873e-10
1.86411e-10
1.86411e-10
5.83571e-07
-1.26053e-10
-1.26053e-10
2.12349e-10
2.9282e-10
6.44506e-07
-2.04483e-10
1.81568e-10
3.76278e-10
6.88282e-07
-2.57615e-10
1.04768e-10
4.37402e-10
7.16627e-07
-3.01998e-10
5.33562e-16
4.68325e-10
7.30612e-07
-3.2312e-10
-1.04767e-10
4.68325e-10
7.30612e-07
-3.2312e-10
-1.81566e-10
4.37402e-10
7.16627e-07
-3.01998e-10
-2.12347e-10
3.76279e-10
6.88282e-07
-2.57615e-10
-1.8641e-10
2.92821e-10
6.44506e-07
-2.04483e-10
1.8641e-10
5.83571e-07
-1.26052e-10
-1.26052e-10
2.92821e-10
2.12348e-10
6.44506e-07
-2.04484e-10
3.22648e-10
3.22647e-10
6.98702e-07
2.73136e-10
4.12912e-10
7.37112e-07
1.56093e-10
4.76689e-10
7.62174e-07
2.34045e-16
5.09287e-10
7.74627e-07
-1.56092e-10
5.09287e-10
7.74627e-07
-2.73135e-10
4.76689e-10
7.62174e-07
-3.22647e-10
4.12912e-10
7.37112e-07
-2.9282e-10
3.22648e-10
6.98702e-07
2.12347e-10
6.44506e-07
-2.04483e-10
3.76278e-10
1.81567e-10
6.88282e-07
-2.57615e-10
4.12911e-10
2.73135e-10
7.37112e-07
3.48616e-10
3.48616e-10
7.72041e-07
1.98617e-10
4.01167e-10
7.95088e-07
-1.58721e-16
4.27976e-10
8.06616e-07
-1.98618e-10
4.27976e-10
8.06616e-07
-3.48616e-10
4.01167e-10
7.95088e-07
-4.12912e-10
3.48617e-10
7.72041e-07
-3.76278e-10
2.73136e-10
7.37112e-07
1.81566e-10
6.88282e-07
-2.57615e-10
4.37401e-10
1.04768e-10
7.16627e-07
-3.01997e-10
4.76688e-10
1.56093e-10
7.62174e-07
4.01166e-10
1.98618e-10
7.95088e-07
2.28162e-10
2.28163e-10
8.16973e-07
-1.64117e-16
2.43225e-10
8.27957e-07
-2.28163e-10
2.43225e-10
8.27957e-07
-4.01167e-10
2.28163e-10
8.16973e-07
-4.76688e-10
1.98619e-10
7.95088e-07
-4.37401e-10
1.56093e-10
7.62174e-07
1.04767e-10