/*--------------------------------*- C++ -*----------------------------------*\
| =========                 |                                                 |
| \\      /  F ield         | OpenFOAM: The Open Source CFD Toolbox           |
|  \\    /   O peration     | Version:  2412                                  |
|   \\  /    A nd           | Website:  www.openfoam.com                      |
|    \\/     M anipulation  |                                                 |
\*---------------------------------------------------------------------------*/
FoamFile
{
    version     2.0;
    format      ascii;
    arch        "LSB;label=32;scalar=64";
    class       volVectorField;
    location    "4.2";
    object      U;
}
// * * * * * * * * * * * * * * * * * * * * * * * * * * * * * * * * * * * * * //

dimensions      [0 1 -1 0 0 0 0];

internalField   nonuniform List<vector> 
15000
(
(0.00119135 0.00119135 0.0105164)
(0.000879278 0.00111456 0.0104968)
(0.000598598 0.00108913 0.0104675)
(0.000351132 0.00106362 0.0104422)
(0.000115246 0.00105184 0.0104285)
(-0.000115246 0.00105184 0.0104285)
(-0.000351132 0.00106362 0.0104422)
(-0.000598598 0.00108913 0.0104675)
(-0.000879278 0.00111456 0.0104968)
(-0.00119135 0.00119135 0.0105164)
(0.00111456 0.000879278 0.0104968)
(0.000828355 0.000828355 0.0104489)
(0.000566096 0.000791998 0.0104016)
(0.000329694 0.000766093 0.0103674)
(0.000108071 0.0007535 0.01035)
(-0.000108071 0.000753499 0.01035)
(-0.000329694 0.000766093 0.0103674)
(-0.000566096 0.000791998 0.0104016)
(-0.000828355 0.000828355 0.0104489)
(-0.00111456 0.000879278 0.0104968)
(0.00108913 0.000598598 0.0104675)
(0.000791998 0.000566096 0.0104016)
(0.000536786 0.000536786 0.0103462)
(0.000310655 0.000515536 0.0103087)
(0.000101581 0.00050485 0.01029)
(-0.000101581 0.00050485 0.01029)
(-0.000310655 0.000515536 0.0103087)
(-0.000536786 0.000536786 0.0103462)
(-0.000791998 0.000566096 0.0104016)
(-0.00108913 0.000598598 0.0104675)
(0.00106362 0.000351132 0.0104422)
(0.000766093 0.000329694 0.0103674)
(0.000515536 0.000310655 0.0103087)
(0.00029685 0.00029685 0.01027)
(9.68531e-05 0.000289845 0.010251)
(-9.68531e-05 0.000289845 0.010251)
(-0.00029685 0.00029685 0.01027)
(-0.000515536 0.000310655 0.0103087)
(-0.000766093 0.000329694 0.0103674)
(-0.00106362 0.000351132 0.0104422)
(0.00105184 0.000115246 0.0104285)
(0.0007535 0.000108071 0.01035)
(0.00050485 0.000101581 0.01029)
(0.000289845 9.68531e-05 0.010251)
(9.44466e-05 9.44466e-05 0.010232)
(-9.44466e-05 9.44466e-05 0.010232)
(-0.000289845 9.68531e-05 0.010251)
(-0.00050485 0.000101581 0.01029)
(-0.0007535 0.000108071 0.01035)
(-0.00105184 0.000115246 0.0104285)
(0.00105184 -0.000115246 0.0104285)
(0.0007535 -0.000108071 0.01035)
(0.00050485 -0.000101581 0.01029)
(0.000289845 -9.68531e-05 0.010251)
(9.44466e-05 -9.44466e-05 0.010232)
(-9.44466e-05 -9.44466e-05 0.010232)
(-0.000289845 -9.68531e-05 0.010251)
(-0.00050485 -0.000101581 0.01029)
(-0.0007535 -0.000108071 0.01035)
(-0.00105184 -0.000115246 0.0104285)
(0.00106362 -0.000351132 0.0104422)
(0.000766093 -0.000329694 0.0103674)
(0.000515536 -0.000310655 0.0103087)
(0.00029685 -0.00029685 0.01027)
(9.68531e-05 -0.000289845 0.010251)
(-9.68531e-05 -0.000289845 0.010251)
(-0.00029685 -0.00029685 0.01027)
(-0.000515536 -0.000310655 0.0103087)
(-0.000766093 -0.000329694 0.0103674)
(-0.00106362 -0.000351132 0.0104422)
(0.00108913 -0.000598598 0.0104675)
(0.000791998 -0.000566096 0.0104016)
(0.000536786 -0.000536786 0.0103462)
(0.000310655 -0.000515536 0.0103087)
(0.000101581 -0.00050485 0.01029)
(-0.000101581 -0.00050485 0.01029)
(-0.000310655 -0.000515536 0.0103087)
(-0.000536786 -0.000536786 0.0103462)
(-0.000791998 -0.000566096 0.0104016)
(-0.00108913 -0.000598598 0.0104675)
(0.00111456 -0.000879278 0.0104968)
(0.000828355 -0.000828355 0.0104489)
(0.000566096 -0.000791998 0.0104016)
(0.000329694 -0.000766093 0.0103674)
(0.000108071 -0.000753499 0.01035)
(-0.000108071 -0.000753499 0.01035)
(-0.000329694 -0.000766093 0.0103674)
(-0.000566096 -0.000791998 0.0104016)
(-0.000828355 -0.000828355 0.0104489)
(-0.00111456 -0.000879278 0.0104968)
(0.00119135 -0.00119135 0.0105164)
(0.000879279 -0.00111456 0.0104968)
(0.000598598 -0.00108913 0.0104675)
(0.000351132 -0.00106362 0.0104422)
(0.000115246 -0.00105184 0.0104285)
(-0.000115246 -0.00105184 0.0104285)
(-0.000351132 -0.00106362 0.0104422)
(-0.000598598 -0.00108913 0.0104675)
(-0.000879278 -0.00111456 0.0104968)
(-0.00119135 -0.00119135 0.0105164)
(0.000614305 0.000614305 0.0125309)
(0.000486397 0.000646651 0.0124731)
(0.000346324 0.000669945 0.0123701)
(0.000207954 0.000681981 0.012279)
(6.89693e-05 0.000688664 0.0122291)
(-6.89693e-05 0.000688664 0.0122291)
(-0.000207954 0.000681981 0.012279)
(-0.000346324 0.000669945 0.0123701)
(-0.000486397 0.000646651 0.0124731)
(-0.000614305 0.000614305 0.0125309)
(0.000646651 0.000486397 0.0124731)
(0.000506999 0.000506999 0.0123013)
(0.000360449 0.000519747 0.0121245)
(0.000215556 0.00052635 0.0119952)
(7.15988e-05 0.000529895 0.011929)
(-7.15988e-05 0.000529895 0.011929)
(-0.000215556 0.00052635 0.0119952)
(-0.000360449 0.000519747 0.0121245)
(-0.000506999 0.000506999 0.0123013)
(-0.000646651 0.000486397 0.0124731)
(0.000669945 0.000346324 0.0123701)
(0.000519747 0.000360449 0.0121245)
(0.000368767 0.000368767 0.0119118)
(0.000220217 0.000373167 0.0117671)
(7.31925e-05 0.000375379 0.0116953)
(-7.31925e-05 0.000375379 0.0116953)
(-0.000220217 0.000373167 0.0117671)
(-0.000368767 0.000368767 0.0119118)
(-0.000519747 0.000360449 0.0121245)
(-0.000669945 0.000346324 0.0123701)
(0.000681981 0.000207954 0.012279)
(0.00052635 0.000215556 0.0119952)
(0.000373167 0.000220217 0.0117671)
(0.000222799 0.000222799 0.0116171)
(7.4082e-05 0.000224075 0.0115437)
(-7.4082e-05 0.000224075 0.0115437)
(-0.000222799 0.000222799 0.0116171)
(-0.000373167 0.000220217 0.0117671)
(-0.00052635 0.000215556 0.0119952)
(-0.000681981 0.000207954 0.012279)
(0.000688664 6.89693e-05 0.0122291)
(0.000529895 7.15988e-05 0.011929)
(0.000375379 7.31925e-05 0.0116953)
(0.000224075 7.4082e-05 0.0115437)
(7.45161e-05 7.45161e-05 0.01147)
(-7.45161e-05 7.45161e-05 0.01147)
(-0.000224075 7.4082e-05 0.0115437)
(-0.000375379 7.31925e-05 0.0116953)
(-0.000529895 7.15988e-05 0.011929)
(-0.000688664 6.89693e-05 0.0122291)
(0.000688664 -6.89693e-05 0.0122291)
(0.000529895 -7.15988e-05 0.011929)
(0.000375379 -7.31925e-05 0.0116953)
(0.000224075 -7.4082e-05 0.0115437)
(7.45161e-05 -7.45161e-05 0.01147)
(-7.45161e-05 -7.45161e-05 0.01147)
(-0.000224075 -7.4082e-05 0.0115437)
(-0.000375379 -7.31925e-05 0.0116953)
(-0.000529896 -7.15988e-05 0.011929)
(-0.000688664 -6.89693e-05 0.0122291)
(0.000681981 -0.000207954 0.012279)
(0.00052635 -0.000215556 0.0119952)
(0.000373167 -0.000220217 0.0117671)
(0.000222799 -0.000222799 0.0116171)
(7.4082e-05 -0.000224075 0.0115437)
(-7.4082e-05 -0.000224075 0.0115437)
(-0.000222799 -0.000222799 0.0116171)
(-0.000373167 -0.000220217 0.0117671)
(-0.00052635 -0.000215556 0.0119952)
(-0.000681981 -0.000207954 0.012279)
(0.000669945 -0.000346324 0.0123701)
(0.000519747 -0.000360449 0.0121245)
(0.000368767 -0.000368767 0.0119118)
(0.000220217 -0.000373167 0.0117671)
(7.31925e-05 -0.000375379 0.0116953)
(-7.31925e-05 -0.000375379 0.0116953)
(-0.000220217 -0.000373167 0.0117671)
(-0.000368767 -0.000368767 0.0119118)
(-0.000519747 -0.000360449 0.0121245)
(-0.000669945 -0.000346324 0.0123701)
(0.000646651 -0.000486397 0.0124731)
(0.000506999 -0.000506999 0.0123013)
(0.000360449 -0.000519747 0.0121245)
(0.000215556 -0.00052635 0.0119952)
(7.15987e-05 -0.000529895 0.011929)
(-7.15988e-05 -0.000529896 0.011929)
(-0.000215556 -0.00052635 0.0119952)
(-0.000360449 -0.000519747 0.0121245)
(-0.000506999 -0.000506999 0.0123013)
(-0.000646651 -0.000486397 0.0124731)
(0.000614305 -0.000614305 0.0125309)
(0.000486397 -0.000646651 0.0124731)
(0.000346324 -0.000669945 0.0123701)
(0.000207954 -0.000681981 0.012279)
(6.89693e-05 -0.000688664 0.0122291)
(-6.89693e-05 -0.000688664 0.0122291)
(-0.000207954 -0.000681981 0.012279)
(-0.000346324 -0.000669945 0.0123701)
(-0.000486397 -0.000646651 0.0124731)
(-0.000614305 -0.000614305 0.0125309)
(0.000369469 0.000369469 0.0123897)
(0.000310976 0.000413313 0.0125138)
(0.000234697 0.000445877 0.0125253)
(0.000145923 0.00046656 0.0125019)
(4.92677e-05 0.000477241 0.0124835)
(-4.92677e-05 0.000477241 0.0124835)
(-0.000145923 0.00046656 0.0125019)
(-0.000234697 0.000445877 0.0125253)
(-0.000310976 0.000413313 0.0125138)
(-0.000369469 0.000369469 0.0123897)
(0.000413313 0.000310976 0.0125138)
(0.000349869 0.000349869 0.0125087)
(0.00026378 0.000376905 0.0124353)
(0.000163715 0.000393512 0.0123677)
(5.53616e-05 0.000401792 0.0123306)
(-5.53616e-05 0.000401792 0.0123306)
(-0.000163715 0.000393512 0.0123677)
(-0.00026378 0.000376905 0.0124353)
(-0.000349869 0.000349869 0.0125087)
(-0.000413313 0.000310976 0.0125138)
(0.000445877 0.000234697 0.0125253)
(0.000376905 0.00026378 0.0124353)
(0.000283835 0.000283835 0.0123194)
(0.000175874 0.000295938 0.0122329)
(5.94808e-05 0.000301792 0.0121888)
(-5.94807e-05 0.000301792 0.0121888)
(-0.000175874 0.000295938 0.0122329)
(-0.000283835 0.000283835 0.0123194)
(-0.000376905 0.00026378 0.0124353)
(-0.000445877 0.000234697 0.0125253)
(0.00046656 0.000145923 0.0125019)
(0.000393512 0.000163715 0.0123677)
(0.000295938 0.000175874 0.0122329)
(0.000183144 0.000183144 0.0121392)
(6.19224e-05 0.000186597 0.0120925)
(-6.19223e-05 0.000186597 0.0120925)
(-0.000183144 0.000183144 0.0121392)
(-0.000295938 0.000175874 0.0122329)
(-0.000393512 0.000163715 0.0123677)
(-0.00046656 0.000145923 0.0125019)
(0.000477241 4.92677e-05 0.0124835)
(0.000401792 5.53616e-05 0.0123306)
(0.000301792 5.94808e-05 0.0121888)
(0.000186597 6.19224e-05 0.0120925)
(6.30691e-05 6.30691e-05 0.012045)
(-6.30691e-05 6.30691e-05 0.012045)
(-0.000186597 6.19224e-05 0.0120925)
(-0.000301792 5.94807e-05 0.0121888)
(-0.000401792 5.53616e-05 0.0123306)
(-0.000477241 4.92677e-05 0.0124835)
(0.000477241 -4.92677e-05 0.0124835)
(0.000401792 -5.53616e-05 0.0123306)
(0.000301792 -5.94807e-05 0.0121888)
(0.000186597 -6.19223e-05 0.0120925)
(6.30691e-05 -6.30691e-05 0.012045)
(-6.30691e-05 -6.30691e-05 0.012045)
(-0.000186597 -6.19223e-05 0.0120925)
(-0.000301792 -5.94807e-05 0.0121888)
(-0.000401792 -5.53616e-05 0.0123306)
(-0.000477241 -4.92677e-05 0.0124835)
(0.00046656 -0.000145923 0.0125019)
(0.000393512 -0.000163715 0.0123677)
(0.000295938 -0.000175874 0.0122329)
(0.000183144 -0.000183144 0.0121392)
(6.19224e-05 -0.000186597 0.0120925)
(-6.19223e-05 -0.000186597 0.0120925)
(-0.000183144 -0.000183144 0.0121392)
(-0.000295938 -0.000175874 0.0122329)
(-0.000393512 -0.000163715 0.0123677)
(-0.00046656 -0.000145923 0.0125019)
(0.000445877 -0.000234697 0.0125253)
(0.000376905 -0.00026378 0.0124353)
(0.000283835 -0.000283835 0.0123194)
(0.000175874 -0.000295938 0.0122329)
(5.94807e-05 -0.000301792 0.0121888)
(-5.94807e-05 -0.000301792 0.0121888)
(-0.000175874 -0.000295938 0.0122329)
(-0.000283835 -0.000283835 0.0123194)
(-0.000376905 -0.000263779 0.0124353)
(-0.000445877 -0.000234697 0.0125253)
(0.000413313 -0.000310976 0.0125138)
(0.000349869 -0.000349869 0.0125087)
(0.00026378 -0.000376905 0.0124353)
(0.000163715 -0.000393512 0.0123677)
(5.53616e-05 -0.000401792 0.0123306)
(-5.53616e-05 -0.000401792 0.0123306)
(-0.000163715 -0.000393512 0.0123677)
(-0.000263779 -0.000376905 0.0124353)
(-0.000349868 -0.000349868 0.0125087)
(-0.000413313 -0.000310976 0.0125138)
(0.000369469 -0.000369469 0.0123897)
(0.000310976 -0.000413313 0.0125138)
(0.000234697 -0.000445877 0.0125253)
(0.000145923 -0.00046656 0.0125019)
(4.92677e-05 -0.000477241 0.0124835)
(-4.92677e-05 -0.000477241 0.0124835)
(-0.000145923 -0.00046656 0.0125019)
(-0.000234697 -0.000445877 0.0125253)
(-0.000310976 -0.000413313 0.0125138)
(-0.000369469 -0.000369469 0.0123897)
(0.000128446 0.000128446 0.0125109)
(0.000116417 0.000160323 0.0126993)
(9.39333e-05 0.000183859 0.0127601)
(6.0544e-05 0.000200383 0.0127695)
(2.08103e-05 0.000208902 0.0127672)
(-2.08103e-05 0.000208902 0.0127672)
(-6.0544e-05 0.000200383 0.0127695)
(-9.39333e-05 0.000183859 0.0127601)
(-0.000116417 0.000160323 0.0126993)
(-0.000128446 0.000128446 0.0125109)
(0.000160323 0.000116417 0.0126993)
(0.000146781 0.000146781 0.0127717)
(0.00011746 0.000169547 0.0127546)
(7.55918e-05 0.000184635 0.012723)
(2.60068e-05 0.00019227 0.0127033)
(-2.60067e-05 0.00019227 0.0127033)
(-7.55918e-05 0.000184635 0.012723)
(-0.00011746 0.000169547 0.0127546)
(-0.000146781 0.000146781 0.0127717)
(-0.000160323 0.000116417 0.0126993)
(0.000183859 9.39333e-05 0.0127601)
(0.000169547 0.00011746 0.0127546)
(0.000135495 0.000135495 0.0126976)
(8.70171e-05 0.000147284 0.0126476)
(2.99315e-05 0.000153163 0.0126208)
(-2.99315e-05 0.000153163 0.0126208)
(-8.7017e-05 0.000147284 0.0126476)
(-0.000135495 0.000135495 0.0126976)
(-0.000169547 0.00011746 0.0127546)
(-0.000183859 9.39333e-05 0.0127601)
(0.000200383 6.0544e-05 0.0127695)
(0.000184635 7.55918e-05 0.012723)
(0.000147284 8.70171e-05 0.0126476)
(9.44401e-05 9.44401e-05 0.01259)
(3.247e-05 9.81098e-05 0.0125603)
(-3.247e-05 9.81098e-05 0.0125603)
(-9.44401e-05 9.44401e-05 0.01259)
(-0.000147284 8.70171e-05 0.0126476)
(-0.000184635 7.55918e-05 0.012723)
(-0.000200383 6.0544e-05 0.0127695)
(0.000208902 2.08103e-05 0.0127672)
(0.00019227 2.60068e-05 0.0127033)
(0.000153163 2.99315e-05 0.0126208)
(9.81098e-05 3.247e-05 0.0125603)
(3.37189e-05 3.37189e-05 0.0125295)
(-3.37189e-05 3.37189e-05 0.0125295)
(-9.81098e-05 3.247e-05 0.0125603)
(-0.000153163 2.99315e-05 0.0126208)
(-0.00019227 2.60067e-05 0.0127033)
(-0.000208902 2.08103e-05 0.0127672)
(0.000208902 -2.08103e-05 0.0127672)
(0.00019227 -2.60067e-05 0.0127033)
(0.000153163 -2.99315e-05 0.0126208)
(9.81098e-05 -3.247e-05 0.0125603)
(3.37189e-05 -3.37189e-05 0.0125295)
(-3.37189e-05 -3.37189e-05 0.0125295)
(-9.81098e-05 -3.247e-05 0.0125603)
(-0.000153163 -2.99315e-05 0.0126208)
(-0.00019227 -2.60068e-05 0.0127033)
(-0.000208902 -2.08103e-05 0.0127672)
(0.000200383 -6.0544e-05 0.0127695)
(0.000184635 -7.55918e-05 0.012723)
(0.000147284 -8.70171e-05 0.0126476)
(9.44401e-05 -9.44401e-05 0.01259)
(3.247e-05 -9.81098e-05 0.0125603)
(-3.247e-05 -9.81098e-05 0.0125603)
(-9.44401e-05 -9.44401e-05 0.01259)
(-0.000147284 -8.7017e-05 0.0126476)
(-0.000184635 -7.55918e-05 0.012723)
(-0.000200383 -6.0544e-05 0.0127695)
(0.000183859 -9.39332e-05 0.0127601)
(0.000169547 -0.00011746 0.0127546)
(0.000135495 -0.000135495 0.0126976)
(8.70171e-05 -0.000147284 0.0126476)
(2.99315e-05 -0.000153163 0.0126208)
(-2.99315e-05 -0.000153163 0.0126208)
(-8.7017e-05 -0.000147284 0.0126476)
(-0.000135495 -0.000135495 0.0126976)
(-0.000169547 -0.00011746 0.0127546)
(-0.000183859 -9.39332e-05 0.0127601)
(0.000160323 -0.000116417 0.0126993)
(0.000146781 -0.000146781 0.0127717)
(0.00011746 -0.000169547 0.0127546)
(7.55918e-05 -0.000184635 0.012723)
(2.60067e-05 -0.00019227 0.0127033)
(-2.60068e-05 -0.00019227 0.0127033)
(-7.55918e-05 -0.000184635 0.012723)
(-0.00011746 -0.000169547 0.0127546)
(-0.000146781 -0.000146781 0.0127717)
(-0.000160323 -0.000116417 0.0126993)
(0.000128446 -0.000128446 0.0125109)
(0.000116417 -0.000160323 0.0126993)
(9.39333e-05 -0.000183859 0.0127601)
(6.0544e-05 -0.000200383 0.0127695)
(2.08103e-05 -0.000208902 0.0127672)
(-2.08103e-05 -0.000208902 0.0127672)
(-6.0544e-05 -0.000200383 0.0127695)
(-9.39332e-05 -0.000183859 0.0127601)
(-0.000116417 -0.000160323 0.0126993)
(-0.000128446 -0.000128446 0.0125109)
(4.60231e-05 4.60231e-05 0.0124617)
(4.30169e-05 5.93589e-05 0.0126863)
(3.60399e-05 6.97192e-05 0.0127787)
(2.36556e-05 7.73474e-05 0.012811)
(8.20665e-06 8.13099e-05 0.0128205)
(-8.20665e-06 8.13099e-05 0.0128205)
(-2.36556e-05 7.73474e-05 0.012811)
(-3.60399e-05 6.97193e-05 0.0127787)
(-4.30169e-05 5.93589e-05 0.0126863)
(-4.60231e-05 4.60231e-05 0.0124617)
(5.93589e-05 4.30169e-05 0.0126863)
(5.70365e-05 5.70365e-05 0.012809)
(4.72687e-05 6.79513e-05 0.0128332)
(3.10229e-05 7.54669e-05 0.0128301)
(1.07722e-05 7.93304e-05 0.0128248)
(-1.07721e-05 7.93304e-05 0.0128248)
(-3.10229e-05 7.5467e-05 0.0128301)
(-4.72687e-05 6.79513e-05 0.0128332)
(-5.70366e-05 5.70366e-05 0.012809)
(-5.93589e-05 4.30169e-05 0.0126863)
(6.97192e-05 3.60399e-05 0.0127787)
(6.79513e-05 4.72688e-05 0.0128332)
(5.62819e-05 5.62819e-05 0.0128232)
(3.69111e-05 6.24239e-05 0.0128048)
(1.28221e-05 6.55577e-05 0.0127937)
(-1.28221e-05 6.55577e-05 0.0127937)
(-3.69111e-05 6.24239e-05 0.0128048)
(-5.62818e-05 5.62819e-05 0.0128232)
(-6.79513e-05 4.72688e-05 0.0128332)
(-6.97193e-05 3.60399e-05 0.0127787)
(7.73474e-05 2.36556e-05 0.012811)
(7.54669e-05 3.10229e-05 0.0128301)
(6.24239e-05 3.69111e-05 0.0128048)
(4.09076e-05 4.09076e-05 0.0127802)
(1.42112e-05 4.29368e-05 0.0127667)
(-1.42112e-05 4.29368e-05 0.0127667)
(-4.09075e-05 4.09076e-05 0.0127802)
(-6.24239e-05 3.69111e-05 0.0128048)
(-7.5467e-05 3.10229e-05 0.0128301)
(-7.73474e-05 2.36556e-05 0.012811)
(8.13099e-05 8.20665e-06 0.0128205)
(7.93304e-05 1.07722e-05 0.0128248)
(6.55577e-05 1.28221e-05 0.0127937)
(4.29368e-05 1.42112e-05 0.0127667)
(1.49145e-05 1.49145e-05 0.0127522)
(-1.49145e-05 1.49145e-05 0.0127522)
(-4.29368e-05 1.42112e-05 0.0127667)
(-6.55577e-05 1.28221e-05 0.0127937)
(-7.93304e-05 1.07721e-05 0.0128248)
(-8.13099e-05 8.20665e-06 0.0128205)
(8.13099e-05 -8.20665e-06 0.0128205)
(7.93304e-05 -1.07721e-05 0.0128248)
(6.55577e-05 -1.28221e-05 0.0127937)
(4.29368e-05 -1.42112e-05 0.0127667)
(1.49145e-05 -1.49145e-05 0.0127522)
(-1.49145e-05 -1.49145e-05 0.0127522)
(-4.29368e-05 -1.42112e-05 0.0127667)
(-6.55577e-05 -1.28221e-05 0.0127937)
(-7.93304e-05 -1.07721e-05 0.0128248)
(-8.13099e-05 -8.20665e-06 0.0128205)
(7.73474e-05 -2.36556e-05 0.012811)
(7.5467e-05 -3.10229e-05 0.0128301)
(6.24239e-05 -3.69111e-05 0.0128048)
(4.09076e-05 -4.09075e-05 0.0127802)
(1.42112e-05 -4.29368e-05 0.0127667)
(-1.42112e-05 -4.29368e-05 0.0127667)
(-4.09076e-05 -4.09076e-05 0.0127802)
(-6.24239e-05 -3.69111e-05 0.0128048)
(-7.54669e-05 -3.10229e-05 0.0128301)
(-7.73474e-05 -2.36556e-05 0.012811)
(6.97193e-05 -3.604e-05 0.0127787)
(6.79513e-05 -4.72688e-05 0.0128332)
(5.62819e-05 -5.62818e-05 0.0128232)
(3.69111e-05 -6.24239e-05 0.0128048)
(1.28221e-05 -6.55577e-05 0.0127937)
(-1.28221e-05 -6.55577e-05 0.0127937)
(-3.69111e-05 -6.24239e-05 0.0128048)
(-5.62818e-05 -5.62818e-05 0.0128232)
(-6.79513e-05 -4.72687e-05 0.0128332)
(-6.97192e-05 -3.60399e-05 0.0127787)
(5.93589e-05 -4.30169e-05 0.0126863)
(5.70366e-05 -5.70366e-05 0.012809)
(4.72688e-05 -6.79513e-05 0.0128332)
(3.10229e-05 -7.5467e-05 0.0128301)
(1.07721e-05 -7.93304e-05 0.0128248)
(-1.07722e-05 -7.93304e-05 0.0128248)
(-3.10229e-05 -7.54669e-05 0.0128301)
(-4.72687e-05 -6.79513e-05 0.0128332)
(-5.70365e-05 -5.70365e-05 0.012809)
(-5.93589e-05 -4.30169e-05 0.0126863)
(4.60231e-05 -4.60231e-05 0.0124617)
(4.30169e-05 -5.93589e-05 0.0126863)
(3.60399e-05 -6.97193e-05 0.0127787)
(2.36556e-05 -7.73474e-05 0.012811)
(8.20665e-06 -8.13099e-05 0.0128205)
(-8.20666e-06 -8.13099e-05 0.0128205)
(-2.36556e-05 -7.73474e-05 0.012811)
(-3.60399e-05 -6.97192e-05 0.0127787)
(-4.30169e-05 -5.93589e-05 0.0126863)
(-4.60232e-05 -4.60232e-05 0.0124617)
(1.4615e-05 1.4615e-05 0.0124306)
(1.4471e-05 2.01664e-05 0.0126643)
(1.27866e-05 2.45706e-05 0.0127669)
(8.61136e-06 2.79098e-05 0.0128072)
(3.02737e-06 2.96495e-05 0.0128209)
(-3.02737e-06 2.96495e-05 0.0128209)
(-8.61135e-06 2.79097e-05 0.0128072)
(-1.27866e-05 2.45706e-05 0.0127669)
(-1.4471e-05 2.01664e-05 0.0126643)
(-1.4615e-05 1.4615e-05 0.0124306)
(2.01664e-05 1.4471e-05 0.0126643)
(2.05989e-05 2.05989e-05 0.0128045)
(1.78074e-05 2.54974e-05 0.0128447)
(1.19642e-05 2.89606e-05 0.0128535)
(4.20038e-06 3.07548e-05 0.0128545)
(-4.20038e-06 3.07548e-05 0.0128545)
(-1.19642e-05 2.89606e-05 0.0128535)
(-1.78074e-05 2.54974e-05 0.0128447)
(-2.05989e-05 2.05989e-05 0.0128045)
(-2.01664e-05 1.4471e-05 0.0126643)
(2.45706e-05 1.27866e-05 0.0127669)
(2.54974e-05 1.78074e-05 0.0128447)
(2.19624e-05 2.19624e-05 0.0128552)
(1.47279e-05 2.48648e-05 0.0128515)
(5.16886e-06 2.63608e-05 0.0128479)
(-5.16886e-06 2.63608e-05 0.0128479)
(-1.47279e-05 2.48648e-05 0.0128515)
(-2.19623e-05 2.19624e-05 0.0128552)
(-2.54974e-05 1.78074e-05 0.0128447)
(-2.45706e-05 1.27866e-05 0.0127669)
(2.79098e-05 8.61136e-06 0.0128072)
(2.89606e-05 1.19642e-05 0.0128535)
(2.48648e-05 1.47279e-05 0.0128515)
(1.66463e-05 1.66463e-05 0.0128431)
(5.83981e-06 1.76305e-05 0.0128378)
(-5.8398e-06 1.76305e-05 0.0128378)
(-1.66463e-05 1.66463e-05 0.0128431)
(-2.48648e-05 1.47279e-05 0.0128515)
(-2.89606e-05 1.19642e-05 0.0128535)
(-2.79097e-05 8.61134e-06 0.0128072)
(2.96495e-05 3.02737e-06 0.0128209)
(3.07548e-05 4.20038e-06 0.0128545)
(2.63608e-05 5.16885e-06 0.0128479)
(1.76305e-05 5.83981e-06 0.0128378)
(6.18319e-06 6.18319e-06 0.0128321)
(-6.18318e-06 6.18319e-06 0.0128321)
(-1.76305e-05 5.83981e-06 0.0128378)
(-2.63608e-05 5.16886e-06 0.0128479)
(-3.07548e-05 4.20038e-06 0.0128545)
(-2.96495e-05 3.02736e-06 0.0128209)
(2.96495e-05 -3.02737e-06 0.0128209)
(3.07548e-05 -4.20037e-06 0.0128545)
(2.63608e-05 -5.16885e-06 0.0128479)
(1.76305e-05 -5.8398e-06 0.0128378)
(6.1832e-06 -6.18318e-06 0.0128321)
(-6.18318e-06 -6.18318e-06 0.0128321)
(-1.76305e-05 -5.8398e-06 0.0128378)
(-2.63608e-05 -5.16885e-06 0.0128479)
(-3.07548e-05 -4.20038e-06 0.0128545)
(-2.96495e-05 -3.02737e-06 0.0128209)
(2.79098e-05 -8.61135e-06 0.0128072)
(2.89606e-05 -1.19642e-05 0.0128535)
(2.48648e-05 -1.47279e-05 0.0128515)
(1.66463e-05 -1.66463e-05 0.0128431)
(5.83981e-06 -1.76305e-05 0.0128378)
(-5.8398e-06 -1.76305e-05 0.0128378)
(-1.66463e-05 -1.66463e-05 0.0128431)
(-2.48648e-05 -1.47279e-05 0.0128515)
(-2.89606e-05 -1.19642e-05 0.0128535)
(-2.79097e-05 -8.61133e-06 0.0128072)
(2.45706e-05 -1.27866e-05 0.0127669)
(2.54974e-05 -1.78074e-05 0.0128447)
(2.19624e-05 -2.19623e-05 0.0128552)
(1.47279e-05 -2.48648e-05 0.0128515)
(5.16886e-06 -2.63608e-05 0.0128479)
(-5.16885e-06 -2.63608e-05 0.0128479)
(-1.47279e-05 -2.48648e-05 0.0128515)
(-2.19623e-05 -2.19623e-05 0.0128552)
(-2.54974e-05 -1.78074e-05 0.0128447)
(-2.45706e-05 -1.27866e-05 0.0127669)
(2.01664e-05 -1.4471e-05 0.0126643)
(2.0599e-05 -2.05989e-05 0.0128045)
(1.78074e-05 -2.54974e-05 0.0128447)
(1.19642e-05 -2.89606e-05 0.0128535)
(4.20037e-06 -3.07548e-05 0.0128545)
(-4.20038e-06 -3.07548e-05 0.0128545)
(-1.19642e-05 -2.89606e-05 0.0128535)
(-1.78074e-05 -2.54974e-05 0.0128447)
(-2.05989e-05 -2.05989e-05 0.0128045)
(-2.01665e-05 -1.4471e-05 0.0126643)
(1.4615e-05 -1.4615e-05 0.0124306)
(1.4471e-05 -2.01664e-05 0.0126643)
(1.27866e-05 -2.45706e-05 0.0127669)
(8.61134e-06 -2.79098e-05 0.0128072)
(3.02736e-06 -2.96495e-05 0.0128209)
(-3.02737e-06 -2.96495e-05 0.0128209)
(-8.61134e-06 -2.79097e-05 0.0128072)
(-1.27866e-05 -2.45706e-05 0.0127669)
(-1.4471e-05 -2.01665e-05 0.0126643)
(-1.4615e-05 -1.4615e-05 0.0124306)
(3.90549e-06 3.90549e-06 0.0124204)
(4.15566e-06 5.95413e-06 0.0126565)
(3.90881e-06 7.61341e-06 0.0127622)
(2.70503e-06 8.93284e-06 0.0128052)
(9.657e-07 9.6199e-06 0.0128205)
(-9.65694e-07 9.6199e-06 0.0128205)
(-2.70503e-06 8.93284e-06 0.0128052)
(-3.90881e-06 7.61343e-06 0.0127622)
(-4.15566e-06 5.95414e-06 0.0126565)
(-3.90549e-06 3.90549e-06 0.0124204)
(5.95413e-06 4.15566e-06 0.0126565)
(6.51785e-06 6.51786e-06 0.0128023)
(5.908e-06 8.48508e-06 0.0128481)
(4.07161e-06 9.9289e-06 0.0128614)
(1.44716e-06 1.06872e-05 0.0128648)
(-1.44715e-06 1.06872e-05 0.0128648)
(-4.07159e-06 9.9289e-06 0.0128614)
(-5.908e-06 8.48509e-06 0.0128481)
(-6.51787e-06 6.51787e-06 0.0128023)
(-5.95413e-06 4.15566e-06 0.0126565)
(7.61341e-06 3.90881e-06 0.0127622)
(8.48508e-06 5.908e-06 0.0128481)
(7.63948e-06 7.63948e-06 0.0128663)
(5.25172e-06 8.89276e-06 0.0128683)
(1.86465e-06 9.54961e-06 0.0128677)
(-1.86464e-06 9.54961e-06 0.0128677)
(-5.25171e-06 8.89276e-06 0.0128683)
(-7.63947e-06 7.63948e-06 0.0128663)
(-8.48509e-06 5.90801e-06 0.0128481)
(-7.61342e-06 3.90881e-06 0.0127622)
(8.93283e-06 2.70503e-06 0.0128052)
(9.92889e-06 4.07161e-06 0.0128614)
(8.89276e-06 5.25173e-06 0.0128683)
(6.09962e-06 6.09962e-06 0.0128664)
(2.16417e-06 6.5424e-06 0.0128646)
(-2.16416e-06 6.5424e-06 0.0128646)
(-6.09961e-06 6.09962e-06 0.0128664)
(-8.89275e-06 5.25172e-06 0.0128683)
(-9.92889e-06 4.0716e-06 0.0128614)
(-8.93283e-06 2.70503e-06 0.0128052)
(9.61989e-06 9.65699e-07 0.0128205)
(1.06872e-05 1.44717e-06 0.0128648)
(9.54961e-06 1.86466e-06 0.0128677)
(6.5424e-06 2.16418e-06 0.0128646)
(2.32033e-06 2.32034e-06 0.0128624)
(-2.32032e-06 2.32033e-06 0.0128624)
(-6.54238e-06 2.16417e-06 0.0128646)
(-9.5496e-06 1.86465e-06 0.0128677)
(-1.06872e-05 1.44716e-06 0.0128648)
(-9.61989e-06 9.65697e-07 0.0128205)
(9.61989e-06 -9.65691e-07 0.0128205)
(1.06872e-05 -1.44715e-06 0.0128648)
(9.54961e-06 -1.86464e-06 0.0128677)
(6.54239e-06 -2.16416e-06 0.0128646)
(2.32033e-06 -2.32032e-06 0.0128624)
(-2.32032e-06 -2.32032e-06 0.0128624)
(-6.54239e-06 -2.16416e-06 0.0128646)
(-9.5496e-06 -1.86464e-06 0.0128677)
(-1.06872e-05 -1.44716e-06 0.0128648)
(-9.61989e-06 -9.65696e-07 0.0128205)
(8.93283e-06 -2.70503e-06 0.0128052)
(9.92889e-06 -4.0716e-06 0.0128614)
(8.89276e-06 -5.25171e-06 0.0128683)
(6.09962e-06 -6.09961e-06 0.0128664)
(2.16417e-06 -6.54239e-06 0.0128646)
(-2.16416e-06 -6.54239e-06 0.0128646)
(-6.09961e-06 -6.09961e-06 0.0128664)
(-8.89275e-06 -5.2517e-06 0.0128683)
(-9.92889e-06 -4.0716e-06 0.0128614)
(-8.93283e-06 -2.70503e-06 0.0128052)
(7.61341e-06 -3.90881e-06 0.0127622)
(8.48509e-06 -5.908e-06 0.0128481)
(7.63948e-06 -7.63946e-06 0.0128663)
(5.25172e-06 -8.89275e-06 0.0128683)
(1.86465e-06 -9.5496e-06 0.0128677)
(-1.86464e-06 -9.5496e-06 0.0128677)
(-5.25171e-06 -8.89274e-06 0.0128683)
(-7.63947e-06 -7.63946e-06 0.0128663)
(-8.48509e-06 -5.908e-06 0.0128481)
(-7.61341e-06 -3.9088e-06 0.0127622)
(5.95414e-06 -4.15567e-06 0.0126565)
(6.51787e-06 -6.51786e-06 0.0128023)
(5.90801e-06 -8.48509e-06 0.0128481)
(4.07159e-06 -9.9289e-06 0.0128614)
(1.44716e-06 -1.06872e-05 0.0128648)
(-1.44715e-06 -1.06872e-05 0.0128648)
(-4.07159e-06 -9.92889e-06 0.0128614)
(-5.90801e-06 -8.48509e-06 0.0128481)
(-6.51786e-06 -6.51785e-06 0.0128023)
(-5.95412e-06 -4.15564e-06 0.0126565)
(3.9055e-06 -3.90549e-06 0.0124204)
(4.15567e-06 -5.95414e-06 0.0126565)
(3.9088e-06 -7.61343e-06 0.0127622)
(2.70503e-06 -8.93284e-06 0.0128052)
(9.65705e-07 -9.61989e-06 0.0128205)
(-9.65696e-07 -9.61989e-06 0.0128205)
(-2.70503e-06 -8.93283e-06 0.0128052)
(-3.9088e-06 -7.61341e-06 0.0127622)
(-4.15565e-06 -5.95412e-06 0.0126565)
(-3.90549e-06 -3.90548e-06 0.0124204)
(9.88199e-07 9.882e-07 0.0124166)
(1.12842e-06 1.65596e-06 0.0126534)
(1.12558e-06 2.20309e-06 0.01276)
(7.95806e-07 2.65938e-06 0.012804)
(2.88558e-07 2.89637e-06 0.0128198)
(-2.88551e-07 2.89637e-06 0.0128198)
(-7.95801e-07 2.65938e-06 0.012804)
(-1.12558e-06 2.20309e-06 0.01276)
(-1.12842e-06 1.65596e-06 0.0126534)
(-9.88196e-07 9.88194e-07 0.0124166)
(1.65596e-06 1.12842e-06 0.0126534)
(1.93031e-06 1.93031e-06 0.0128009)
(1.82327e-06 2.62054e-06 0.0128488)
(1.28256e-06 3.14537e-06 0.0128638)
(4.60888e-07 3.42426e-06 0.012868)
(-4.60885e-07 3.42426e-06 0.012868)
(-1.28256e-06 3.14536e-06 0.0128638)
(-1.82327e-06 2.62054e-06 0.0128488)
(-1.93031e-06 1.93031e-06 0.0128009)
(-1.65596e-06 1.12842e-06 0.0126534)
(2.20309e-06 1.12558e-06 0.01276)
(2.62054e-06 1.82327e-06 0.0128488)
(2.45284e-06 2.45284e-06 0.0128698)
(1.72227e-06 2.92495e-06 0.012874)
(6.17825e-07 3.17633e-06 0.0128746)
(-6.17827e-07 3.17633e-06 0.0128746)
(-1.72226e-06 2.92494e-06 0.012874)
(-2.45283e-06 2.45283e-06 0.0128698)
(-2.62054e-06 1.82327e-06 0.0128488)
(-2.20308e-06 1.12559e-06 0.01276)
(2.65938e-06 7.95803e-07 0.012804)
(3.14537e-06 1.28257e-06 0.0128638)
(2.92495e-06 1.72227e-06 0.012874)
(2.04958e-06 2.04958e-06 0.0128748)
(7.34642e-07 2.22357e-06 0.0128743)
(-7.34643e-07 2.22358e-06 0.0128743)
(-2.04958e-06 2.04958e-06 0.0128748)
(-2.92494e-06 1.72227e-06 0.012874)
(-3.14536e-06 1.28257e-06 0.0128638)
(-2.65937e-06 7.95808e-07 0.012804)
(2.89637e-06 2.88559e-07 0.0128198)
(3.42426e-06 4.60888e-07 0.012868)
(3.17633e-06 6.17825e-07 0.0128746)
(2.22357e-06 7.34642e-07 0.0128743)
(7.96724e-07 7.96725e-07 0.0128736)
(-7.96722e-07 7.96727e-07 0.0128736)
(-2.22357e-06 7.34647e-07 0.0128743)
(-3.17632e-06 6.1783e-07 0.0128746)
(-3.42425e-06 4.6089e-07 0.012868)
(-2.89636e-06 2.88559e-07 0.0128198)
(2.89637e-06 -2.88552e-07 0.0128198)
(3.42426e-06 -4.60884e-07 0.012868)
(3.17633e-06 -6.17823e-07 0.0128746)
(2.22357e-06 -7.34641e-07 0.0128743)
(7.96726e-07 -7.9672e-07 0.0128736)
(-7.96721e-07 -7.9672e-07 0.0128736)
(-2.22357e-06 -7.34638e-07 0.0128743)
(-3.17632e-06 -6.1782e-07 0.0128746)
(-3.42425e-06 -4.60882e-07 0.012868)
(-2.89637e-06 -2.88557e-07 0.0128198)
(2.65938e-06 -7.95801e-07 0.012804)
(3.14536e-06 -1.28256e-06 0.0128638)
(2.92494e-06 -1.72226e-06 0.012874)
(2.04958e-06 -2.04958e-06 0.0128748)
(7.34645e-07 -2.22357e-06 0.0128743)
(-7.3464e-07 -2.22357e-06 0.0128743)
(-2.04957e-06 -2.04957e-06 0.0128748)
(-2.92494e-06 -1.72226e-06 0.012874)
(-3.14536e-06 -1.28256e-06 0.0128638)
(-2.65937e-06 -7.95808e-07 0.012804)
(2.20309e-06 -1.12558e-06 0.01276)
(2.62054e-06 -1.82327e-06 0.0128488)
(2.45283e-06 -2.45283e-06 0.0128698)
(1.72227e-06 -2.92494e-06 0.012874)
(6.17829e-07 -3.17632e-06 0.0128746)
(-6.17823e-07 -3.17633e-06 0.0128746)
(-1.72226e-06 -2.92494e-06 0.012874)
(-2.45283e-06 -2.45283e-06 0.0128698)
(-2.62054e-06 -1.82327e-06 0.0128488)
(-2.20308e-06 -1.12558e-06 0.01276)
(1.65596e-06 -1.12842e-06 0.0126534)
(1.9303e-06 -1.93031e-06 0.0128009)
(1.82327e-06 -2.62054e-06 0.0128488)
(1.28257e-06 -3.14536e-06 0.0128638)
(4.60886e-07 -3.42425e-06 0.012868)
(-4.60887e-07 -3.42425e-06 0.012868)
(-1.28256e-06 -3.14535e-06 0.0128638)
(-1.82327e-06 -2.62053e-06 0.0128488)
(-1.9303e-06 -1.93031e-06 0.0128009)
(-1.65596e-06 -1.12842e-06 0.0126534)
(9.88191e-07 -9.88193e-07 0.0124166)
(1.12841e-06 -1.65595e-06 0.0126534)
(1.12559e-06 -2.20308e-06 0.01276)
(7.9581e-07 -2.65937e-06 0.012804)
(2.88555e-07 -2.89637e-06 0.0128198)
(-2.88555e-07 -2.89636e-06 0.0128198)