/*--------------------------------*- C++ -*----------------------------------*\
| =========                 |                                                 |
| \\      /  F ield         | OpenFOAM: The Open Source CFD Toolbox           |
|  \\    /   O peration     | Version:  2412                                  |
|   \\  /    A nd           | Website:  www.openfoam.com                      |
|    \\/     M anipulation  |                                                 |
\*---------------------------------------------------------------------------*/
FoamFile
{
    version     2.0;
    format      ascii;
    arch        "LSB;label=32;scalar=64";
    class       surfaceScalarField;
    location    "0.06";
    object      phi;
}
// * * * * * * * * * * * * * * * * * * * * * * * * * * * * * * * * * * * * * //

dimensions      [0 3 -1 0 0 0 0];

oriented        oriented;

internalField   nonuniform List<scalar> 
43700
(
7.05085e-05
7.05085e-05
5.44022e-05
-7.42087e-05
-7.42087e-05
5.96239e-05
7.53806e-05
6.4602e-05
-7.81596e-05
4.31035e-05
7.89783e-05
7.29173e-05
-8.14321e-05
2.25885e-05
8.12287e-05
7.87666e-05
-8.3509e-05
2.18778e-11
8.23132e-05
8.17818e-05
-8.45136e-05
-2.25884e-05
8.23132e-05
8.17818e-05
-8.45136e-05
-4.31034e-05
8.12287e-05
7.87666e-05
-8.3509e-05
-5.96238e-05
7.89783e-05
7.29173e-05
-8.14321e-05
-7.05085e-05
7.53806e-05
6.4602e-05
-7.81596e-05
7.05085e-05
5.44022e-05
-7.42086e-05
-7.42087e-05
7.53806e-05
5.96239e-05
6.4602e-05
-7.81596e-05
6.43433e-05
6.43433e-05
7.66589e-05
4.67546e-05
6.76926e-05
8.62433e-05
2.45644e-05
6.97546e-05
9.2914e-05
2.81263e-11
7.07399e-05
9.63349e-05
-2.45643e-05
7.07399e-05
9.63349e-05
-4.67546e-05
6.97546e-05
9.2914e-05
-6.43432e-05
6.76926e-05
8.62433e-05
-7.53805e-05
6.43433e-05
7.66589e-05
5.96239e-05
6.4602e-05
-7.81595e-05
7.89783e-05
4.31035e-05
7.29173e-05
-8.14322e-05
6.76927e-05
4.67546e-05
8.62433e-05
4.93084e-05
4.93084e-05
9.67558e-05
2.59377e-05
5.08674e-05
0.000104014
3.39176e-11
5.16076e-05
0.000107718
-2.59377e-05
5.16076e-05
0.000107718
-4.93083e-05
5.08674e-05
0.000104014
-6.76926e-05
4.93084e-05
9.67558e-05
-7.89782e-05
4.67546e-05
8.62433e-05
4.31035e-05
7.29173e-05
-8.14321e-05
8.12287e-05
2.25884e-05
7.87666e-05
-8.3509e-05
6.97546e-05
2.45644e-05
9.2914e-05
5.08675e-05
2.59377e-05
0.000104014
2.67731e-05
2.67731e-05
0.000111639
3.78206e-11
2.71682e-05
0.000115517
-2.6773e-05
2.71682e-05
0.000115517
-5.08674e-05
2.67731e-05
0.000111639
-6.97545e-05
2.59377e-05
0.000104014
-8.12286e-05
2.45644e-05
9.2914e-05
2.25885e-05
7.87666e-05
-8.3509e-05
8.23132e-05
-8.20965e-12
8.17818e-05
-8.45136e-05
7.07399e-05
-5.17566e-12
9.63349e-05
5.16076e-05
-3.08377e-13
0.000107718
2.71683e-05
7.22719e-12
0.000115517
4.39592e-11
1.48161e-11
0.000119476
-2.71682e-05
2.09451e-11
0.000119476
-5.16076e-05
2.68757e-11
0.000115517
-7.07399e-05
3.04653e-11
0.000107718
-8.23131e-05
3.13071e-11
9.63349e-05
2.97576e-11
8.17818e-05
-8.45136e-05
8.23132e-05
-2.25885e-05
8.17818e-05
-8.45136e-05
7.07399e-05
-2.45644e-05
9.63349e-05
5.16076e-05
-2.59377e-05
0.000107718
2.71683e-05
-2.6773e-05
0.000115517
4.7822e-11
-2.71682e-05
0.000119476
-2.71682e-05
-2.71682e-05
0.000119476
-5.16076e-05
-2.6773e-05
0.000115517
-7.07399e-05
-2.59377e-05
0.000107718
-8.23131e-05
-2.45643e-05
9.63349e-05
-2.25884e-05
8.17818e-05
-8.45136e-05
8.12287e-05
-4.31035e-05
7.87665e-05
-8.3509e-05
6.97546e-05
-4.67546e-05
9.2914e-05
5.08675e-05
-4.93084e-05
0.000104014
2.67731e-05
-5.08674e-05
0.000111639
5.04023e-11
-5.16076e-05
0.000115517
-2.6773e-05
-5.16076e-05
0.000115517
-5.08674e-05
-5.08674e-05
0.000111639
-6.97545e-05
-4.93084e-05
0.000104014
-8.12286e-05
-4.67546e-05
9.2914e-05
-4.31034e-05
7.87666e-05
-8.3509e-05
7.89783e-05
-5.96239e-05
7.29173e-05
-8.14322e-05
6.76927e-05
-6.43433e-05
8.62433e-05
4.93084e-05
-6.76926e-05
9.67558e-05
2.59378e-05
-6.97545e-05
0.000104014
5.22352e-11
-7.07399e-05
0.000107718
-2.59377e-05
-7.07399e-05
0.000107718
-4.93083e-05
-6.97545e-05
0.000104014
-6.76926e-05
-6.76926e-05
9.67559e-05
-7.89782e-05
-6.43432e-05
8.62433e-05
-5.96239e-05
7.29173e-05
-8.14321e-05
7.53806e-05
-7.05085e-05
6.4602e-05
-7.81596e-05
6.43433e-05
-7.53806e-05
7.66589e-05
4.67547e-05
-7.89783e-05
8.62433e-05
2.45644e-05
-8.12287e-05
9.2914e-05
5.17536e-11
-8.23131e-05
9.63349e-05
-2.45643e-05
-8.23131e-05
9.63349e-05
-4.67546e-05
-8.12286e-05
9.2914e-05
-6.43432e-05
-7.89783e-05
8.62433e-05
-7.53805e-05
-7.53806e-05
7.66589e-05
-7.05085e-05
6.4602e-05
-7.81595e-05
7.05085e-05
5.44022e-05
-7.42087e-05
-7.42087e-05
5.96239e-05
6.4602e-05
-7.81596e-05
4.31035e-05
7.29173e-05
-8.14321e-05
2.25885e-05
7.87666e-05
-8.3509e-05
4.65147e-11
8.17818e-05
-8.45136e-05
-2.25884e-05
8.17818e-05
-8.45136e-05
-4.31034e-05
7.87666e-05
-8.3509e-05
-5.96238e-05
7.29173e-05
-8.14321e-05
-7.05085e-05
6.4602e-05
-7.81595e-05
5.44022e-05
-7.42086e-05
-7.42087e-05
7.98741e-06
7.98739e-06
5.38493e-05
-7.71094e-06
-7.71093e-06
7.27782e-06
9.70433e-06
6.46795e-05
-9.07224e-06
5.54611e-06
1.118e-05
7.37317e-05
-1.02626e-05
2.99912e-06
1.2223e-05
8.0186e-05
-1.10955e-05
-1.12948e-11
1.27637e-05
8.35394e-05
-1.15222e-05
-2.99913e-06
1.27637e-05
8.35394e-05
-1.15222e-05
-5.54612e-06
1.2223e-05
8.0186e-05
-1.10955e-05
-7.27782e-06
1.118e-05
7.37316e-05
-1.02626e-05
-7.9874e-06
9.70435e-06
6.46795e-05
-9.07225e-06
7.98741e-06
5.38493e-05
-7.71093e-06
-7.71094e-06
9.70435e-06
7.27779e-06
6.46795e-05
-9.07225e-06
9.00289e-06
9.00285e-06
7.80619e-05
6.93509e-06
1.04774e-05
8.90136e-05
3.77084e-06
1.15281e-05
9.67731e-05
-6.28326e-12
1.20754e-05
0.000100794
-3.77084e-06
1.20754e-05
0.000100794
-6.93508e-06
1.15282e-05
9.67731e-05
-9.00287e-06
1.04775e-05
8.90136e-05
-9.70433e-06
9.00288e-06
7.80618e-05
7.27783e-06
6.46795e-05
-9.07224e-06
1.118e-05
5.54608e-06
7.37317e-05
-1.02626e-05
1.04775e-05
6.93505e-06
8.90136e-05
8.11644e-06
8.1164e-06
0.000101478
4.42557e-06
8.96162e-06
0.000110271
3.03135e-12
9.40272e-06
0.000114816
-4.42556e-06
9.40273e-06
0.000114816
-8.11642e-06
8.96164e-06
0.000110271
-1.04775e-05
8.11643e-06
0.000101478
-1.118e-05
6.93509e-06
8.90136e-05
5.54613e-06
7.37316e-05
-1.02626e-05
1.22231e-05
2.99908e-06
8.0186e-05
-1.10955e-05
1.15282e-05
3.7708e-06
9.67731e-05
8.96166e-06
4.42552e-06
0.000110271
4.895e-06
4.89496e-06
0.000119772
1.22074e-11
5.14016e-06
0.000124674
-4.89498e-06
5.14017e-06
0.000124674
-8.96163e-06
4.89499e-06
0.000119772
-1.15281e-05
4.42557e-06
0.000110271
-1.2223e-05
3.77085e-06
9.67731e-05
2.99914e-06
8.0186e-05
-1.10954e-05
1.27638e-05
-4.95795e-11
8.35394e-05
-1.15222e-05
1.20755e-05
-4.85696e-11
0.000100794
9.40276e-06
-4.38707e-11
0.000114816
5.14021e-06
-3.56047e-11
0.000124674
2.36209e-11
-2.45693e-11
0.000129756
-5.14016e-06
-1.27819e-11
0.000129756
-9.40271e-06
-1.27094e-12
0.000124674
-1.20754e-05
5.65424e-12
0.000114816
-1.27637e-05
1.30974e-11
0.000100794
1.74456e-11
8.35394e-05
-1.15222e-05
1.27638e-05
-2.99917e-06
8.35393e-05
-1.15222e-05
1.20755e-05
-3.77089e-06
0.000100794
9.40277e-06
-4.4256e-06
0.000114816
5.14022e-06
-4.89502e-06
0.000124674
3.32821e-11
-5.14021e-06
0.000129756
-5.14015e-06
-5.1402e-06
0.000129756
-9.40271e-06
-4.89499e-06
0.000124674
-1.20754e-05
-4.42555e-06
0.000114816
-1.27637e-05
-3.77083e-06
0.000100794
-2.99911e-06
8.35394e-05
-1.15222e-05
1.22231e-05
-5.54616e-06
8.0186e-05
-1.10955e-05
1.15282e-05
-6.93512e-06
9.67731e-05
8.96168e-06
-8.11646e-06
0.000110271
4.89502e-06
-8.96167e-06
0.000119772
4.08287e-11
-9.40276e-06
0.000124674
-4.89495e-06
-9.40275e-06
0.000124674
-8.96161e-06
-8.96164e-06
0.000119772
-1.15281e-05
-8.11642e-06
0.000110271
-1.2223e-05
-6.93507e-06
9.67731e-05
-5.5461e-06
8.0186e-05
-1.10954e-05
1.118e-05
-7.27785e-06
7.37316e-05
-1.02626e-05
1.04775e-05
-9.0029e-06
8.90136e-05
8.11647e-06
-1.04775e-05
0.000101478
4.4256e-06
-1.15282e-05
0.000110271
4.44469e-11
-1.20755e-05
0.000114816
-4.42552e-06
-1.20754e-05
0.000114816
-8.11639e-06
-1.15282e-05
0.000110271
-1.04774e-05
-1.04775e-05
0.000101478
-1.11799e-05
-9.00287e-06
8.90136e-05
-7.27781e-06
7.37317e-05
-1.02626e-05
9.70436e-06
-7.98742e-06
6.46794e-05
-9.07226e-06
9.00291e-06
-9.70436e-06
7.80618e-05
6.93512e-06
-1.118e-05
8.90136e-05
3.77089e-06
-1.2223e-05
9.67731e-05
4.64464e-11
-1.27638e-05
0.000100794
-3.7708e-06
-1.27638e-05
0.000100794
-6.93505e-06
-1.2223e-05
9.67731e-05
-9.00285e-06
-1.118e-05
8.90136e-05
-9.70432e-06
-9.70434e-06
7.80619e-05
-7.98739e-06
6.46795e-05
-9.07223e-06
7.98743e-06
5.38493e-05
-7.71094e-06
-7.71095e-06
7.27785e-06
6.46794e-05
-9.07226e-06
5.54616e-06
7.37316e-05
-1.02626e-05
2.99917e-06
8.0186e-05
-1.10955e-05
4.24701e-11
8.35394e-05
-1.15222e-05
-2.99908e-06
8.35394e-05
-1.15222e-05
-5.54608e-06
8.0186e-05
-1.10955e-05
-7.27779e-06
7.37317e-05
-1.02626e-05
-7.98738e-06
6.46795e-05
-9.07224e-06
5.38493e-05
-7.71092e-06
-7.71093e-06
-2.27822e-07
-2.27812e-07
5.33809e-05
4.61998e-07
4.61992e-07
-8.27998e-08
-2.41442e-07
6.42545e-05
5.21367e-07
-2.55351e-09
-2.64445e-07
7.33335e-05
5.82399e-07
1.71335e-08
-2.76463e-07
7.98204e-05
6.22354e-07
-3.77455e-11
-2.80354e-07
8.31957e-05
6.41223e-07
-1.71998e-08
-2.80352e-07
8.31956e-05
6.41222e-07
2.49623e-09
-2.76457e-07
7.98204e-05
6.22351e-07
8.27585e-08
-2.64434e-07
7.33334e-05
5.82396e-07
2.278e-07
-2.41425e-07
6.42545e-05
5.21361e-07
-2.27794e-07
5.33809e-05
4.61989e-07
4.61984e-07
-2.41449e-07
-8.27881e-08
6.42545e-05
5.21373e-07
-4.96513e-08
-4.96435e-08
7.76783e-05
4.99222e-08
-2.73064e-08
8.86769e-05
5.47229e-08
-5.71313e-09
9.64976e-05
-3.44148e-11
8.23579e-09
0.00010056
-5.47824e-08
8.24288e-09
0.00010056
-4.99711e-08
-5.69788e-09
9.64975e-05
4.96203e-08
-2.72823e-08
8.86769e-05
2.41433e-07
-4.96145e-08
7.76782e-05
-8.27563e-08
6.42545e-05
5.21366e-07
-2.64451e-07
-2.54374e-09
7.33335e-05
5.82405e-07
-2.73104e-08
4.99276e-08
8.86769e-05
9.47984e-08
9.48014e-08
0.000101234
8.87878e-08
1.32872e-07
0.000110139
-2.18202e-11
1.5525e-07
0.000114758
-8.88289e-08
1.55257e-07
0.000114758
-9.48289e-08
1.32893e-07
0.000110139
2.7292e-08
9.48333e-08
0.000101234
2.64443e-07
4.99706e-08
8.86769e-05
-2.49838e-09
7.33334e-05
5.82406e-07
-2.76466e-07
1.71407e-08
7.98204e-05
6.22356e-07
-5.7101e-09
5.47304e-08
9.64976e-05
1.32875e-07
8.87878e-08
0.000110139
1.17146e-07
1.17141e-07
0.000119804
-8.16979e-12
1.33498e-07
0.000124813
-1.17162e-07
1.33511e-07
0.000124813
-1.32884e-07
1.17172e-07
0.000119804
5.71119e-09
8.88334e-08
0.000110139
2.76469e-07
5.47808e-08
9.64975e-05
1.71949e-08
7.98204e-05
6.22363e-07
-2.8035e-07
-2.81953e-11
8.31957e-05
6.41223e-07
8.24142e-09
-2.6893e-11
0.00010056
1.55258e-07
-2.10737e-11
0.000114758
1.3351e-07
-1.12717e-11
0.000124813
9.89697e-12
-2.00881e-12
0.000130023
-1.33495e-07
7.421e-12
0.000130023
-1.55243e-07
1.67714e-11
0.000124813
-8.22672e-09
2.43476e-11
0.000114758
2.80365e-07
2.87114e-11
0.00010056
2.96402e-11
8.31957e-05
6.41238e-07
-2.80342e-07
-1.71894e-08
8.31956e-05
6.4122e-07
8.25164e-09
-5.47796e-08
0.00010056
1.55271e-07
-8.88277e-08
0.000114758
1.33523e-07
-1.17163e-07
0.000124813
2.34988e-11
-1.33503e-07
0.000130023
-1.33482e-07
-1.33495e-07
0.000130023
-1.55232e-07
-1.17139e-07
0.000124813
-8.21962e-09
-8.87866e-08
0.000114758
2.80369e-07
-5.47279e-08
0.00010056
-1.7138e-08
8.31957e-05
6.41237e-07
-2.76447e-07
2.50252e-09
7.98204e-05
6.22343e-07
-5.68235e-09
-4.99691e-08
9.64975e-05
1.32913e-07
-9.48298e-08
0.000110139
1.17186e-07
-1.32887e-07
0.000119804
3.33031e-11
-1.55248e-07
0.000124813
-1.17124e-07
-1.55241e-07
0.000124813
-1.32853e-07
-1.32865e-07
0.000119804
5.73002e-09
-9.47979e-08
0.000110139
2.76482e-07
-4.99271e-08
9.64976e-05
2.54404e-09
7.98204e-05
6.22368e-07
-2.64422e-07
8.27638e-08
7.33334e-05
5.82388e-07
-2.72635e-08
4.96247e-08
8.86768e-05
9.4856e-08
2.72906e-08
0.000101234
8.88506e-08
5.70697e-09
0.000110139
4.15225e-11
-8.23096e-09
0.000114758
-8.87716e-08
-8.22642e-09
0.000114758
-9.47853e-08
5.72385e-09
0.000110139
2.73238e-08
2.73143e-08
0.000101234
2.64462e-07
4.96497e-08
8.86769e-05
8.2792e-08
7.33335e-05
5.82415e-07
-2.4141e-07
2.27799e-07
6.42545e-05
5.21347e-07
-4.95983e-08
2.41434e-07
7.76782e-05
4.99933e-08
2.64444e-07
8.86769e-05
5.48004e-08
2.76468e-07
9.64975e-05
4.48194e-11
2.80364e-07
0.00010056
-5.47113e-08
2.80367e-07
0.00010056
-4.99173e-08
2.76477e-07
9.64976e-05
4.96591e-08
2.64458e-07
8.86769e-05
2.41454e-07
2.41448e-07
7.76783e-05
2.27817e-07
6.42545e-05
5.21376e-07
-2.27778e-07
5.33809e-05
4.61988e-07
4.61973e-07
-8.27407e-08
6.42545e-05
5.21365e-07
-2.47751e-09
7.33334e-05
5.82404e-07
1.7213e-08
7.98204e-05
6.2236e-07
4.34535e-11
8.31957e-05
6.41234e-07
-1.71249e-08
8.31957e-05
6.41237e-07
2.55291e-09
7.98204e-05
6.22367e-07
8.27977e-08
7.33335e-05
5.82413e-07
2.27823e-07
6.42545e-05
5.21374e-07
5.3381e-05
4.62002e-07
4.61998e-07
-4.44739e-07
-4.44736e-07
5.3758e-05
2.56205e-07
2.56203e-07
-4.87669e-07
-5.49723e-07
6.45351e-05
3.12105e-07
-4.09262e-07
-6.21969e-07
7.35277e-05
3.49274e-07
-2.32264e-07
-6.69934e-07
7.9939e-05
3.74401e-07
-3.75066e-11
-6.94334e-07
8.32703e-05
3.87438e-07
2.32195e-07
-6.94333e-07
8.32703e-05
3.87438e-07
4.09196e-07
-6.69932e-07
7.99389e-05
3.744e-07
4.87618e-07
-6.21965e-07
7.35277e-05
3.49273e-07
4.44702e-07
-5.49718e-07
6.4535e-05
3.12103e-07
-4.44732e-07
5.3758e-05
2.56181e-07
2.56199e-07
-5.49725e-07
-4.87666e-07
6.45351e-05
3.12107e-07
-6.16517e-07
-6.16514e-07
7.78119e-05
-5.2414e-07
-7.08832e-07
8.86714e-05
-2.99362e-07
-7.70135e-07
9.6373e-05
-4.07746e-11
-8.01005e-07
0.000100368
2.99286e-07
-8.01004e-07
0.000100368
5.24071e-07
-7.70133e-07
9.6373e-05
6.16462e-07
-7.08825e-07
8.86713e-05
5.49686e-07
-6.16503e-07
7.78118e-05
-4.87655e-07
6.4535e-05
3.1208e-07
-6.2197e-07
-4.09259e-07
7.35277e-05
3.49276e-07
-7.08834e-07
-5.24138e-07
8.86714e-05
-6.08564e-07
-6.08564e-07
0.000101033
-3.49366e-07
-6.6477e-07
0.000109774
-4.02199e-11
-6.92933e-07
0.0001143
3.49291e-07
-6.92931e-07
0.0001143
6.085e-07
-6.64763e-07
0.000109774
7.08783e-07
-6.08552e-07
0.000101033
6.21932e-07
-5.24123e-07
8.86713e-05
-4.09244e-07
7.35277e-05
3.49251e-07
-6.69934e-07
-2.32263e-07
7.99389e-05
3.74403e-07
-7.70136e-07
-2.99361e-07
9.6373e-05
-6.64768e-07
-3.49366e-07
0.000109774
-3.82726e-07
-3.82729e-07
0.00011924
-3.55135e-11
-3.99406e-07
0.000124137
3.82659e-07
-3.99401e-07
0.000124137
6.64712e-07
-3.82717e-07
0.00011924
7.70091e-07
-3.4935e-07
0.000109774
6.699e-07
-2.99342e-07
9.6373e-05
-2.32246e-07
7.99389e-05
3.74379e-07
-6.94332e-07
-3.95202e-11
8.32703e-05
3.87436e-07
-8.01003e-07
-4.32612e-11
0.000100368
-6.92927e-07
-4.12679e-11
0.0001143
-3.994e-07
-4.07388e-11
0.000124137
-2.69173e-11
-3.78762e-11
0.000129224
3.99346e-07
-3.08848e-11
0.000129224
6.92883e-07
-2.69007e-11
0.000124137
8.00966e-07
-2.53803e-11
0.0001143
6.94302e-07
-2.21736e-11
0.000100368
-1.87298e-11
8.32703e-05
3.87417e-07
-6.94328e-07
2.32193e-07
8.32703e-05
3.87435e-07
-8.00996e-07
2.99283e-07
0.000100367
-6.92923e-07
3.49289e-07
0.0001143
-3.99394e-07
3.82656e-07
0.000124137
-1.65355e-11
3.99338e-07
0.000129224
3.99353e-07
3.9934e-07
0.000129224
6.92886e-07
3.82667e-07
0.000124137
8.00971e-07
3.49305e-07
0.0001143
6.94305e-07
2.99302e-07
0.000100368
2.32213e-07
8.32703e-05
3.87419e-07
-6.69925e-07
4.09195e-07
7.99389e-05
3.74397e-07
-7.7012e-07
5.24066e-07
9.63729e-05
-6.64751e-07
6.08491e-07
0.000109774
-3.82708e-07
6.64702e-07
0.00011924
-1.1617e-11
6.92874e-07
0.000124137
3.82681e-07
6.92876e-07
0.000124137
6.64726e-07
6.64713e-07
0.00011924
7.70102e-07
6.08508e-07
0.000109774
6.69908e-07
5.24083e-07
9.6373e-05
4.09211e-07
7.9939e-05
3.74384e-07
-6.21958e-07
4.87614e-07
7.35277e-05
3.49268e-07
-7.08813e-07
6.16458e-07
8.86713e-05
-6.08537e-07
7.08776e-07
0.000101033
-3.49335e-07
7.70081e-07
0.000109774
-7.50087e-12
8.00956e-07
0.0001143
3.49321e-07
8.00959e-07
0.0001143
6.08522e-07
7.70091e-07
0.000109774
7.08799e-07
7.08786e-07
0.000101033
6.21945e-07
6.1647e-07
8.86714e-05
4.87626e-07
7.35277e-05
3.49258e-07
-5.49709e-07
4.44696e-07
6.4535e-05
3.12096e-07
-6.16493e-07
5.49681e-07
7.78118e-05
-5.2411e-07
6.21928e-07
8.86713e-05
-2.99326e-07
6.69895e-07
9.63729e-05
-3.35609e-12
6.94297e-07
0.000100368
2.99319e-07
6.94298e-07
0.000100368
5.24096e-07
6.69899e-07
9.6373e-05
6.16483e-07
6.21936e-07
8.86714e-05
5.49698e-07
5.49688e-07
7.78118e-05
4.44706e-07
6.45351e-05
3.12088e-07
-4.44722e-07
5.37579e-05
2.56177e-07
2.56194e-07
-4.87644e-07
6.4535e-05
3.12077e-07
-4.09232e-07
7.35277e-05
3.49248e-07
-2.3223e-07
7.99389e-05
3.74376e-07
-3.41398e-12
8.32703e-05
3.87413e-07
2.32226e-07
8.32703e-05
3.87414e-07
4.09223e-07
7.9939e-05
3.74378e-07
4.87635e-07
7.35277e-05
3.49253e-07
4.44715e-07
6.45351e-05
3.12081e-07
5.3758e-05
2.56188e-07
2.56182e-07
-6.02596e-08
-6.02813e-08
5.36093e-05
1.34615e-07
1.3463e-07
-2.3685e-08
-9.17129e-08
6.44232e-05
1.67039e-07
-5.36351e-09
-1.33021e-07
7.34376e-05
2.04886e-07
4.20991e-10
-1.66626e-07
7.9866e-05
2.33754e-07
1.5753e-11
-1.85133e-07
8.32068e-05
2.49026e-07
-3.88905e-10
-1.85133e-07
8.32068e-05
2.49025e-07
5.39139e-09
-1.66624e-07
7.9866e-05
2.33751e-07
2.37103e-08
-1.33017e-07
7.34375e-05
2.04883e-07
6.02809e-08
-9.17075e-08
6.44231e-05
1.67037e-07
-6.02739e-08
5.36093e-05
1.3463e-07
1.34625e-07
-9.16896e-08
-2.37134e-08
6.44232e-05
1.67022e-07
-5.07005e-08
-5.07296e-08
7.77299e-05
-2.58683e-08
-8.88705e-08
8.86024e-05
-1.08386e-08
-1.21588e-07
9.63129e-05
1.41426e-11
-1.40157e-07
0.000100312
1.08694e-08
-1.40156e-07
0.000100312
2.58962e-08
-1.21585e-07
9.63129e-05
5.07245e-08
-8.88652e-08
8.86024e-05
9.17119e-08
-5.07204e-08
7.77298e-05
-2.37045e-08
6.44231e-05
1.67038e-07
-1.32997e-07
-5.39539e-09
7.34376e-05
2.0487e-07
-8.88408e-08
-2.59043e-08
8.86024e-05
-5.55325e-08
-5.55679e-08
0.000100967
-2.71877e-08
-8.18168e-08
0.000109706
1.32791e-11
-9.69887e-08
0.00011423
2.72161e-08
-9.69875e-08
0.00011423
5.55587e-08
-8.18147e-08
0.000109706
8.88653e-08
-5.55625e-08
0.000100966
1.33016e-07
-2.58968e-08
8.86024e-05
-5.38907e-09
7.34375e-05
2.04884e-07
-1.66603e-07
3.864e-10
7.9866e-05
2.33738e-07
-1.21557e-07
-1.08758e-08
9.63129e-05
-8.17818e-08
-2.72262e-08
0.000109706
-4.18803e-08
-4.19176e-08
0.00011916
1.219e-11
-5.04866e-08
0.000124048
4.19047e-08
-5.0485e-08
0.000124048
8.18069e-08
-4.19126e-08
0.00011916
1.2158e-07
-2.72193e-08
0.000109706
1.66619e-07
-1.08687e-08
9.63129e-05
3.9304e-10
7.9866e-05
2.33752e-07
-1.8511e-07
-1.86355e-11
8.32068e-05
2.49012e-07
-1.40127e-07
-2.19627e-11
0.000100312
-9.69538e-08
-2.40926e-11
0.00011423
-5.04504e-08
-2.55972e-11
0.000124048
1.15762e-11
-2.63719e-11
0.000129123
5.04739e-08
-2.3328e-11
0.000129123
9.69769e-08
-2.12507e-11
0.000124048
1.40147e-07
-1.70974e-11
0.00011423
1.85124e-07
-1.42383e-11
0.000100312
-1.01074e-11
8.32068e-05
2.49022e-07
-1.8511e-07
-4.17963e-10
8.32068e-05
2.49013e-07
-1.40127e-07
1.08363e-08
0.000100312
-9.69547e-08
2.71797e-08
0.00011423
-5.04518e-08
4.18679e-08
0.000124048
1.27404e-11
5.04375e-08
0.000129123
5.04731e-08
5.0438e-08
0.000129123
9.69773e-08
4.18711e-08
0.000124048
1.40146e-07
2.71835e-08
0.00011423
1.85124e-07
1.08386e-08
0.000100312
-4.15391e-10
8.32069e-05
2.4902e-07
-1.66604e-07
5.36433e-09
7.9866e-05
2.3374e-07
-1.2156e-07
2.58659e-08
9.63129e-05
-8.17848e-08
5.55254e-08
0.000109706
-4.18827e-08
8.17728e-08
0.00011916
1.15152e-11
9.69435e-08
0.000124048
4.19034e-08
9.69451e-08
0.000124048
8.18052e-08
8.17776e-08
0.00011916
1.21576e-07
5.55286e-08
0.000109706
1.66617e-07
2.58681e-08
9.63129e-05
5.36336e-09
7.9866e-05
2.33746e-07
-1.33e-07
2.36855e-08
7.34375e-05
2.04871e-07
-8.88451e-08
5.06977e-08
8.86023e-05
-5.55367e-08
8.88369e-08
0.000100966
-2.71934e-08
1.21551e-07
0.000109706
1.12329e-11
1.40119e-07
0.00011423
2.72138e-08
1.40118e-07
0.00011423
5.55527e-08
1.21551e-07
0.000109706
8.88576e-08
8.88358e-08
0.000100967
1.33009e-07
5.06968e-08
8.86024e-05
2.36853e-08
7.34376e-05
2.04878e-07
-9.16931e-08
6.02593e-08
6.44231e-05
1.67025e-07
-5.07044e-08
9.16877e-08
7.77298e-05
-2.58762e-08
1.32992e-07
8.86023e-05
-1.08468e-08
1.66596e-07
9.63129e-05
8.63126e-12
1.85104e-07
0.000100312
1.08646e-08
1.85105e-07
0.000100312
2.5888e-08
1.66597e-07
9.63129e-05
5.07152e-08
1.32994e-07
8.86024e-05
9.17005e-08
9.16875e-08
7.77299e-05
6.02603e-08
6.44232e-05
1.67031e-07
-6.02633e-08
5.36092e-05
1.34614e-07
1.34616e-07
-2.36914e-08
6.44231e-05
1.6702e-07
-5.37141e-09
7.34375e-05
2.04866e-07
4.128e-10
7.9866e-05
2.33735e-07
8.27732e-12
8.32068e-05
2.49006e-07
-3.97519e-10
8.32068e-05
2.49007e-07
5.38212e-09
7.9866e-05
2.33734e-07
2.36989e-08
7.34375e-05
2.04867e-07
6.02706e-08
6.44232e-05
1.67023e-07
5.36093e-05
1.34623e-07
1.34616e-07
-2.28625e-08
-2.28768e-08
5.37214e-05
-3.3181e-08
-3.31727e-08
-4.54114e-08
-2.25754e-08
6.45091e-05
-4.08059e-08
-4.53754e-08
-1.4658e-08
7.35049e-05
-5.27258e-08
-2.75576e-08
-7.28127e-09
7.99175e-05
-6.19935e-08
1.39077e-11
-3.11103e-09
8.32492e-05
-6.68528e-08
2.7585e-08
-3.11146e-09
8.32492e-05
-6.68533e-08
4.5397e-08
-7.28125e-09
7.99175e-05
-6.19954e-08
4.54298e-08
-1.4657e-08
7.35049e-05
-5.27277e-08
2.28761e-08
-2.25757e-08
6.45091e-05
-4.08066e-08
-2.28766e-08
5.37214e-05
-3.31743e-08
-3.31756e-08
-2.25604e-08
-4.54304e-08
6.45091e-05
-4.08161e-08
-5.11139e-08
-5.11332e-08
7.7787e-05
-5.27233e-08
-4.85073e-08
8.86379e-05
-3.24311e-08
-4.4506e-08
9.63299e-05
1.4214e-11
-4.19183e-08
0.000100318
3.24605e-08
-4.19197e-08
0.000100318
5.2747e-08
-4.45088e-08
9.63298e-05
5.11317e-08
-4.8508e-08
8.86378e-05
2.25752e-08
-5.11301e-08
7.77869e-05
-4.54286e-08
6.45091e-05
-4.08089e-08
-1.46424e-08
-4.53941e-08
7.35049e-05
-5.27366e-08
-4.84885e-08
-5.27441e-08
8.86379e-05
-5.33979e-08
-5.34196e-08
0.000100976
-3.36734e-08
-5.21e-08
0.000109694
1.15053e-11
-5.09504e-08
0.000114205
3.36986e-08
-5.09506e-08
0.000114205
5.34213e-08
-5.21021e-08
0.000109694
4.85079e-08
-5.34213e-08
0.000100976
1.46544e-08
-5.27468e-08
8.86378e-05
-4.53964e-08
7.35049e-05
-5.27314e-08
-7.26751e-09
-2.75765e-08
7.99175e-05
-6.20023e-08
-4.44905e-08
-3.24528e-08
9.63299e-05
-5.20806e-08
-3.36944e-08
0.000109694
-3.35682e-08
-3.35855e-08
0.000119123
7.89224e-12
-3.32621e-08
0.000123997
3.35847e-08
-3.32627e-08
0.000123997
5.20984e-08
-3.3588e-08
0.000119123
4.45034e-08
-3.36978e-08
0.000109694
7.27544e-09
-3.24553e-08
9.63298e-05
-2.75803e-08
7.99175e-05
-6.19985e-08
-3.10042e-09
-7.15852e-12
8.32492e-05
-6.68612e-08
-4.19058e-08
-7.88387e-12
0.000100318
-5.09339e-08
-7.8636e-12
0.000114205
-3.32495e-08
-1.2109e-11
0.000123997
2.13374e-12
-1.41728e-11
0.000129057
3.32538e-08
-1.09214e-11
0.000129057
5.09419e-08
-1.12532e-11
0.000123997
4.1912e-08
-1.22163e-11
0.000114205
3.10099e-09
-1.1078e-11
0.000100318
-7.42888e-12
8.32492e-05
-6.68604e-08
-3.10334e-09
2.75683e-08
8.32492e-05
-6.68574e-08
-4.19092e-08
3.24416e-08
0.000100318
-5.09425e-08
3.36802e-08
0.000114205
-3.32569e-08
3.35679e-08
0.000123997
-8.42573e-13
3.3241e-08
0.000129057
3.32467e-08
3.32393e-08
0.000129057
5.09346e-08
3.35674e-08
0.000123997
4.19074e-08
3.36778e-08
0.000114205
3.09928e-09
3.24371e-08
0.000100318
2.75673e-08
8.32492e-05
-6.68609e-08
-7.27771e-09
4.53825e-08
7.99174e-05
-6.19949e-08
-4.45035e-08
5.27297e-08
9.63298e-05
-5.21009e-08
5.34001e-08
0.000109694
-3.35896e-08
5.208e-08
0.000119123
-9.04289e-12
5.09299e-08
0.000123997
3.35679e-08
5.09287e-08
0.000123997
5.20798e-08
5.2081e-08
0.000119123
4.449e-08
5.34021e-08
0.000109694
7.26877e-09
5.27299e-08
9.63299e-05
4.53831e-08
7.99175e-05
-6.20032e-08
-1.46592e-08
4.54154e-08
7.35048e-05
-5.27274e-08
-4.85123e-08
5.1116e-08
8.86378e-05
-5.34259e-08
4.84924e-08
0.000100976
-3.3704e-08
4.44882e-08
0.000109694
-1.66775e-11
4.19013e-08
0.000114205
3.3672e-08
4.19022e-08
0.000114205
5.33946e-08
4.44901e-08
0.000109694
4.84873e-08
4.8492e-08
0.000100976
1.46428e-08
5.11194e-08
8.86379e-05
4.54194e-08
7.35049e-05
-5.27368e-08
-2.25818e-08
2.28632e-08
6.4509e-05
-4.08037e-08
-5.11395e-08
2.25618e-08
7.77869e-05
-5.27589e-08
1.4643e-08
8.86378e-05
-3.24662e-08
7.26654e-09
9.63298e-05
-2.0817e-11
3.09652e-09
0.000100318
3.24254e-08
3.09644e-09
0.000100318
5.27161e-08
7.26734e-09
9.63298e-05
5.11099e-08
1.46476e-08
8.86379e-05
2.25593e-08
2.25667e-08
7.7787e-05
2.28709e-08
6.45091e-05
-4.08164e-08
-2.28849e-08
5.37213e-05
-3.31816e-08
-3.31696e-08
-4.54397e-08
6.4509e-05
-4.08173e-08
-4.54115e-08
7.35048e-05
-5.27388e-08
-2.75936e-08
7.99174e-05
-6.20041e-08
-2.34944e-11
8.32492e-05
-6.6865e-08
2.75489e-08
8.32492e-05
-6.68651e-08
4.53682e-08
7.99175e-05
-6.20044e-08
4.54058e-08
7.35049e-05
-5.27348e-08
2.28609e-08
6.45091e-05
-4.08119e-08
5.37214e-05
-3.31827e-08
-3.31758e-08
1.47913e-08
1.47918e-08
5.36505e-05
2.06706e-08
2.06704e-08
2.90105e-08
1.45726e-08
6.44548e-05
2.54886e-08
2.89005e-08
9.48815e-09
7.34625e-05
3.30226e-08
1.75322e-08
4.72712e-09
7.98852e-05
3.8895e-08
-5.72747e-12
2.02287e-09
8.32228e-05
4.19778e-08
-1.75421e-08
2.02302e-09
8.32228e-05
4.19763e-08
-2.89103e-08
4.72992e-09
7.98852e-05
3.88917e-08
-2.90202e-08
9.49292e-09
7.34624e-05
3.30203e-08
-1.47976e-08
1.45796e-08
6.44548e-05
2.54862e-08
1.48017e-08
5.36504e-05
2.06675e-08
2.0665e-08
1.45707e-08
2.90109e-08
6.44548e-05
2.54913e-08
3.25112e-08
3.25132e-08
7.77511e-05
3.33953e-08
3.06553e-08
8.86158e-05
2.04975e-08
2.78964e-08
9.63196e-05
-9.46505e-12
2.61104e-08
0.000100314
-2.05118e-08
2.61132e-08
0.000100314
-3.34092e-08
2.79025e-08
9.63195e-05
-3.25233e-08
3.06646e-08
8.86158e-05
-1.45768e-08
3.25269e-08
7.7751e-05
2.90241e-08
6.44548e-05
2.54864e-08
9.4835e-09
2.88984e-08
7.34625e-05
3.30278e-08
3.06498e-08
3.33946e-08
8.86158e-05
3.35473e-08
3.35523e-08
0.000100971
2.10828e-08
3.24244e-08
0.000109702
-1.13475e-11
3.15028e-08
0.000114221
-2.11031e-08
3.15055e-08
0.000114221
-3.35658e-08
3.2431e-08
0.000109702
-3.06639e-08
3.35641e-08
0.000100971
-9.49385e-09
3.34103e-08
8.86158e-05
2.89147e-08
7.34625e-05
3.30211e-08
4.71861e-09
1.75279e-08
7.98852e-05
3.89014e-08
2.78883e-08
2.04976e-08
9.63196e-05
3.24138e-08
2.1087e-08
0.000109702
2.0794e-08
2.08053e-08
0.000119146
-1.4931e-11
2.04605e-08
0.000124029
-2.0823e-08
2.04647e-08
0.000124029
-3.2438e-08
2.08177e-08
0.000119146
-2.79066e-08
2.1104e-08
0.000109702
-4.73368e-09
2.05159e-08
9.63195e-05
1.75488e-08
7.98852e-05
3.88944e-08
2.01218e-09
-9.88585e-12
8.32228e-05
4.19869e-08
2.60966e-08
-7.68953e-12
0.000100314
3.14864e-08
-5.23175e-12
0.000114221
2.04417e-08
-1.58704e-12
0.000124029
-1.8394e-11
7.15556e-13
0.000129098
-2.04775e-08
5.17227e-12
0.000129098
-3.15193e-08
9.07491e-12
0.000124029
-2.61236e-08
1.46812e-11
0.000114221
-2.03145e-09
1.62321e-11
0.000100314
1.85557e-11
8.32228e-05
4.19761e-08
2.0106e-09
-1.75438e-08
8.32227e-05
4.19886e-08
2.60933e-08
-2.05115e-08
0.000100314
3.14827e-08
-2.10984e-08
0.000114221
2.0436e-08
-2.08108e-08
0.000124029
-2.21357e-11
-2.04578e-08
0.000129098
-2.04815e-08
-2.04553e-08
0.000129098
-3.15207e-08
-2.08013e-08
0.000124029
-2.61274e-08
-2.10819e-08
0.000114221
-2.03281e-09
-2.04904e-08
0.000100314
-1.75194e-08
8.32228e-05
4.19721e-08
4.712e-09
-2.8914e-08
7.98852e-05
3.89044e-08
2.78766e-08
-3.34087e-08
9.63195e-05
3.24026e-08
-3.35598e-08
0.000109702
2.07817e-08
-3.24257e-08
0.000119146
-2.72616e-11
-3.15e-08
0.000124029
-2.0835e-08
-3.14961e-08
0.000124029
-3.24471e-08
-3.24144e-08
0.000119146
-2.79171e-08
-3.35453e-08
0.000109702
-4.7382e-09
-3.33875e-08
9.63196e-05
-2.88941e-08
7.98852e-05
3.88861e-08
9.47262e-09
-2.90227e-08
7.34624e-05
3.30329e-08
3.06355e-08
-3.25219e-08
8.86157e-05
3.3531e-08
-3.06584e-08
0.00010097
2.10625e-08
-2.78961e-08
0.000109702
-2.94281e-11
-2.61064e-08
0.000114221
-2.11201e-08
-2.61056e-08
0.000114221
-3.35833e-08
-2.78905e-08
0.000109702
-3.06781e-08
-3.06486e-08
0.000100971
-9.5056e-09
-3.25082e-08
8.86158e-05
-2.90057e-08
7.34625e-05
3.30136e-08
1.45586e-08
-1.47994e-08
6.44547e-05
2.54983e-08
3.24959e-08
-1.45761e-08
7.7751e-05
3.33753e-08
-9.48966e-09
8.86157e-05
2.04731e-08
-4.72642e-09
9.63195e-05
-3.19985e-11
-2.01838e-09
0.000100314
-2.05324e-08
-2.01532e-09
0.000100314
-3.34295e-08
-4.72059e-09
9.63196e-05
-3.254e-08
-9.4812e-09
8.86158e-05
-1.45919e-08
-1.45676e-08
7.77511e-05
-1.47873e-08
6.44548e-05
2.54772e-08
1.47806e-08
5.36504e-05
2.06671e-08
2.0678e-08
2.89942e-08
6.44547e-05
2.54868e-08
2.888e-08
7.34624e-05
3.30235e-08
1.75088e-08
7.98852e-05
3.88985e-08
-2.85083e-11
8.32227e-05
4.19812e-08
-1.7565e-08
8.32228e-05
4.19816e-08
-2.89316e-08
7.98852e-05
3.88983e-08
-2.90388e-08
7.34625e-05
3.30272e-08
-1.48113e-08
6.44548e-05
2.54942e-08
5.36505e-05
2.06585e-08
2.06743e-08
-5.9857e-09
-5.98353e-09
5.36942e-05
-1.58632e-08
-1.58649e-08
-1.49706e-08
-4.78191e-09
6.44882e-05
-1.95924e-08
-1.55326e-08
-5.82632e-10
7.34886e-05
-2.49984e-08
-9.54558e-09
3.17612e-09
7.99053e-05
-2.91891e-08
2.14327e-12
5.29171e-09
8.32393e-05
-3.13946e-08
9.5501e-09
5.29297e-09
8.32393e-05
-3.13961e-08
1.55361e-08
3.18082e-09
7.99052e-05
-2.9193e-08
1.49736e-08
-5.76e-10
7.34886e-05
-2.50025e-08
5.9905e-09
-4.7736e-09
6.44881e-05
-1.95966e-08
-5.97555e-09
5.36941e-05
-1.58597e-08
-1.58706e-08
-4.78501e-09
-1.49684e-08
6.44882e-05
-1.95899e-08
-1.59357e-08
-1.59331e-08
7.77734e-05
-1.7258e-08
-1.35861e-08
8.86302e-05
-1.07629e-08
-1.09374e-08
9.63272e-05
2.85333e-13
-9.31099e-09
0.000100318
1.0765e-08
-9.30956e-09
0.000100318
1.72586e-08
-1.09323e-08
9.63272e-05
1.5937e-08
-1.35747e-08
8.86301e-05
4.78831e-09
-1.59168e-08
7.77733e-05
-1.49535e-08
6.44881e-05
-1.95878e-08
-5.88172e-10
-1.55315e-08
7.34886e-05
-2.49935e-08
-1.35911e-08
-1.72547e-08
8.86302e-05
-1.62983e-08
-1.62927e-08
0.000100976
-1.05038e-08
-1.47468e-08
0.0001097
-2.65844e-12
-1.37062e-08
0.000114215
1.05014e-08
-1.37031e-08
0.000114215
1.62984e-08
-1.4739e-08
0.0001097
1.35926e-08
-1.62803e-08
0.000100976
5.88414e-10
-1.72397e-08
8.86301e-05
-1.55159e-08
7.34886e-05
-2.49943e-08
3.16899e-09
-9.54523e-09
7.99053e-05
-2.91827e-08
-1.09462e-08
-1.07597e-08
9.63272e-05
-1.47563e-08
-1.04987e-08
0.0001097
-9.83003e-09
-9.81972e-09
0.000119136
-4.80815e-12
-9.32485e-09
0.000124015
9.82232e-09
-9.32003e-09
0.000124015
1.4753e-08
-9.80858e-09
0.000119136
1.09445e-08
-1.04839e-08
0.0001097
-3.17099e-09
-1.0744e-08
9.63272e-05
-9.53065e-09
7.99052e-05
-2.91841e-08
5.28269e-09
-1.87159e-13