/*--------------------------------*- C++ -*----------------------------------*\
| =========                 |                                                 |
| \\      /  F ield         | OpenFOAM: The Open Source CFD Toolbox           |
|  \\    /   O peration     | Version:  2412                                  |
|   \\  /    A nd           | Website:  www.openfoam.com                      |
|    \\/     M anipulation  |                                                 |
\*---------------------------------------------------------------------------*/
FoamFile
{
    version     2.0;
    format      ascii;
    arch        "LSB;label=32;scalar=64";
    class       volVectorField;
    location    "0.06";
    object      U;
}
// * * * * * * * * * * * * * * * * * * * * * * * * * * * * * * * * * * * * * //

dimensions      [0 1 -1 0 0 0 0];

internalField   nonuniform List<vector> 
15000
(
(0.0725191 0.0725191 1.05285)
(0.0609336 0.0819354 1.14055)
(0.0466235 0.0897974 1.20525)
(0.0292353 0.0952275 1.24746)
(0.00995322 0.098004 1.26823)
(-0.00995318 0.098004 1.26823)
(-0.0292352 0.0952275 1.24746)
(-0.0466234 0.0897975 1.20525)
(-0.0609335 0.0819354 1.14055)
(-0.072519 0.0725191 1.05285)
(0.0819354 0.0609336 1.14055)
(0.070391 0.0703909 1.24533)
(0.0541695 0.0778983 1.31913)
(0.0340678 0.083048 1.36631)
(0.0116137 0.0856714 1.38929)
(-0.0116137 0.0856714 1.38929)
(-0.0340678 0.0830481 1.36631)
(-0.0541695 0.0778984 1.31913)
(-0.0703909 0.070391 1.24533)
(-0.0819354 0.0609336 1.14055)
(0.0897975 0.0466235 1.20525)
(0.0778984 0.0541695 1.31913)
(0.0601467 0.0601466 1.39843)
(0.0378793 0.0642181 1.44842)
(0.0129215 0.0662844 1.47254)
(-0.0129215 0.0662844 1.47254)
(-0.0378793 0.0642182 1.44842)
(-0.0601466 0.0601467 1.39843)
(-0.0778983 0.0541695 1.31913)
(-0.0897974 0.0466235 1.20525)
(0.0952275 0.0292352 1.24746)
(0.0830481 0.0340678 1.36631)
(0.0642182 0.0378793 1.44842)
(0.0404675 0.0404675 1.49972)
(0.0138086 0.0417775 1.52431)
(-0.0138085 0.0417775 1.52432)
(-0.0404674 0.0404675 1.49972)
(-0.0642181 0.0378793 1.44842)
(-0.083048 0.0340678 1.36631)
(-0.0952275 0.0292353 1.24746)
(0.098004 0.00995319 1.26823)
(0.0856714 0.0116137 1.38929)
(0.0662845 0.0129215 1.47254)
(0.0417775 0.0138085 1.52431)
(0.014257 0.014257 1.54905)
(-0.0142569 0.014257 1.54905)
(-0.0417774 0.0138086 1.52432)
(-0.0662844 0.0129215 1.47254)
(-0.0856714 0.0116137 1.38929)
(-0.0980039 0.00995324 1.26823)
(0.098004 -0.00995321 1.26823)
(0.0856714 -0.0116137 1.38929)
(0.0662845 -0.0129215 1.47254)
(0.0417775 -0.0138085 1.52432)
(0.014257 -0.014257 1.54905)
(-0.0142569 -0.014257 1.54905)
(-0.0417774 -0.0138085 1.52432)
(-0.0662844 -0.0129215 1.47255)
(-0.0856714 -0.0116136 1.38929)
(-0.098004 -0.00995316 1.26823)
(0.0952275 -0.0292352 1.24746)
(0.0830481 -0.0340678 1.36631)
(0.0642182 -0.0378793 1.44842)
(0.0404675 -0.0404674 1.49972)
(0.0138086 -0.0417775 1.52432)
(-0.0138085 -0.0417775 1.52432)
(-0.0404674 -0.0404674 1.49972)
(-0.0642181 -0.0378793 1.44842)
(-0.083048 -0.0340678 1.36631)
(-0.0952275 -0.0292352 1.24746)
(0.0897975 -0.0466235 1.20525)
(0.0778984 -0.0541695 1.31913)
(0.0601467 -0.0601466 1.39843)
(0.0378794 -0.0642181 1.44842)
(0.0129216 -0.0662844 1.47254)
(-0.0129215 -0.0662844 1.47255)
(-0.0378793 -0.0642181 1.44842)
(-0.0601466 -0.0601466 1.39843)
(-0.0778983 -0.0541695 1.31913)
(-0.0897974 -0.0466234 1.20525)
(0.0819354 -0.0609336 1.14055)
(0.070391 -0.0703909 1.24533)
(0.0541695 -0.0778983 1.31913)
(0.0340679 -0.083048 1.36631)
(0.0116137 -0.0856714 1.38929)
(-0.0116136 -0.0856714 1.38929)
(-0.0340678 -0.083048 1.36631)
(-0.0541694 -0.0778983 1.31913)
(-0.0703909 -0.0703909 1.24533)
(-0.0819354 -0.0609336 1.14055)
(0.0725191 -0.0725191 1.05285)
(0.0609336 -0.0819354 1.14055)
(0.0466235 -0.0897974 1.20525)
(0.0292353 -0.0952275 1.24746)
(0.00995326 -0.098004 1.26823)
(-0.00995315 -0.098004 1.26823)
(-0.0292352 -0.0952275 1.24746)
(-0.0466234 -0.0897974 1.20525)
(-0.0609335 -0.0819354 1.14055)
(-0.0725191 -0.0725191 1.05285)
(0.00794679 0.00794677 1.23532)
(0.00711315 0.010173 1.36423)
(0.00581126 0.0121757 1.46365)
(0.00379176 0.0136455 1.5305)
(0.0013163 0.014424 1.56403)
(-0.00131634 0.014424 1.56403)
(-0.00379179 0.0136455 1.5305)
(-0.00581127 0.0121758 1.46365)
(-0.00711315 0.010173 1.36423)
(-0.00794677 0.00794679 1.23532)
(0.010173 0.00711312 1.36423)
(0.00952839 0.00952836 1.52771)
(0.00787349 0.0116864 1.64947)
(0.00517681 0.0132891 1.73051)
(0.00180329 0.014143 1.77098)
(-0.00180331 0.014143 1.77098)
(-0.00517683 0.0132891 1.73051)
(-0.00787349 0.0116864 1.64947)
(-0.00952838 0.00952839 1.5277)
(-0.010173 0.00711316 1.36423)
(0.0121758 0.00581123 1.46365)
(0.0116864 0.00787345 1.64947)
(0.00973626 0.00973622 1.78764)
(0.00643117 0.011129 1.87908)
(0.00224517 0.0118738 1.92458)
(-0.00224517 0.0118738 1.92458)
(-0.00643117 0.011129 1.87908)
(-0.00973624 0.00973625 1.78764)
(-0.0116864 0.0078735 1.64947)
(-0.0121757 0.00581128 1.46365)
(0.0136455 0.00379172 1.5305)
(0.0132892 0.00517678 1.73051)
(0.0111291 0.00643113 1.87908)
(0.00737322 0.00737318 1.97717)
(0.00257777 0.00787805 2.02586)
(-0.00257775 0.00787806 2.02586)
(-0.0073732 0.00737321 1.97717)
(-0.011129 0.00643118 1.87908)
(-0.0132891 0.00517684 1.73051)
(-0.0136455 0.0037918 1.5305)
(0.014424 0.00131627 1.56403)
(0.014143 0.00180324 1.77098)
(0.0118739 0.00224512 1.92458)
(0.00787809 0.00257772 2.02586)
(0.0027562 0.00275616 2.07608)
(-0.00275616 0.00275617 2.07608)
(-0.00787805 0.00257776 2.02586)
(-0.0118738 0.00224518 1.92458)
(-0.0141429 0.00180332 1.77098)
(-0.014424 0.00131634 1.56403)
(0.014424 -0.00131637 1.56403)
(0.014143 -0.00180335 1.77098)
(0.0118739 -0.00224522 1.92458)
(0.0078781 -0.00257779 2.02586)
(0.00275621 -0.00275621 2.07608)
(-0.00275615 -0.00275619 2.07608)
(-0.00787804 -0.00257776 2.02586)
(-0.0118738 -0.00224516 1.92458)
(-0.0141429 -0.00180328 1.77098)
(-0.014424 -0.0013163 1.56403)
(0.0136455 -0.00379182 1.5305)
(0.0132892 -0.00517687 1.73051)
(0.0111291 -0.00643121 1.87908)
(0.00737325 -0.00737324 1.97717)
(0.0025778 -0.00787809 2.02586)
(-0.00257772 -0.00787808 2.02586)
(-0.00737318 -0.00737321 1.97717)
(-0.011129 -0.00643116 1.87908)
(-0.0132891 -0.00517681 1.73051)
(-0.0136455 -0.00379175 1.5305)
(0.0121758 -0.0058113 1.46364)
(0.0116864 -0.00787352 1.64947)
(0.00973628 -0.00973628 1.78764)
(0.00643121 -0.0111291 1.87908)
(0.00224521 -0.0118739 1.92458)
(-0.00224513 -0.0118739 1.92458)
(-0.00643113 -0.011129 1.87908)
(-0.00973621 -0.00973624 1.78764)
(-0.0116863 -0.00787347 1.64947)
(-0.0121757 -0.00581125 1.46365)
(0.010173 -0.00711317 1.36423)
(0.00952841 -0.0095284 1.5277)
(0.00787352 -0.0116864 1.64947)
(0.00517687 -0.0132892 1.73051)
(0.00180334 -0.014143 1.77098)
(-0.00180325 -0.014143 1.77098)
(-0.00517678 -0.0132891 1.73051)
(-0.00787345 -0.0116864 1.64947)
(-0.00952835 -0.00952837 1.5277)
(-0.010173 -0.00711314 1.36423)
(0.0079468 -0.00794679 1.23532)
(0.00711318 -0.010173 1.36423)
(0.0058113 -0.0121758 1.46364)
(0.00379182 -0.0136455 1.5305)
(0.00131637 -0.014424 1.56403)
(-0.00131628 -0.014424 1.56403)
(-0.00379173 -0.0136455 1.5305)
(-0.00581123 -0.0121757 1.46364)
(-0.00711312 -0.010173 1.36423)
(-0.00794676 -0.00794677 1.23532)
(-0.000295619 -0.000295605 1.07865)
(-8.4959e-05 -0.000399085 1.20213)
(2.65783e-05 -0.000466037 1.29934)
(5.54434e-05 -0.000496896 1.36571)
(2.55422e-05 -0.000506715 1.39933)
(-2.56231e-05 -0.000506714 1.39933)
(-5.55143e-05 -0.000496894 1.36571)
(-2.66339e-05 -0.000466034 1.29934)
(8.4922e-05 -0.000399078 1.20213)
(0.000295602 -0.000295595 1.07865)
(-0.000399096 -8.49425e-05 1.20213)
(-0.000114727 -0.000114714 1.36287)
(3.91973e-05 -0.000129674 1.48596)
(8.27829e-05 -0.000122337 1.56961)
(3.8578e-05 -0.000111206 1.61193)
(-3.865e-05 -0.000111203 1.61193)
(-8.28442e-05 -0.000122329 1.5696)
(-3.92428e-05 -0.000129661 1.48596)
(0.0001147 -0.000114694 1.36287)
(0.000399086 -8.49181e-05 1.20213)
(-0.000466046 2.65933e-05 1.29934)
(-0.000129683 3.92085e-05 1.48596)
(6.74749e-05 6.74823e-05 1.62941)
(0.000121362 0.000105599 1.72683)
(5.57214e-05 0.00013257 1.77609)
(-5.5771e-05 0.000132576 1.77609)
(-0.000121405 0.000105616 1.72683)
(-6.7503e-05 6.75084e-05 1.62941)
(0.000129669 3.92438e-05 1.48596)
(0.000466044 2.66337e-05 1.29934)
(-0.0004969 5.54542e-05 1.36571)
(-0.00012234 8.27899e-05 1.56961)
(0.000105599 0.000121365 1.72683)
(0.000162627 0.000162623 1.83369)
(7.31262e-05 0.000189409 1.88773)
(-7.3148e-05 0.000189418 1.88773)
(-0.000162643 0.00016265 1.83369)
(-0.000105607 0.000121406 1.72683)
(0.000122341 8.28398e-05 1.56961)
(0.000496907 5.55088e-05 1.36571)
(-0.000506715 2.55507e-05 1.39933)
(-0.000111202 3.85835e-05 1.61193)
(0.000132576 5.57206e-05 1.77609)
(0.000189418 7.31207e-05 1.88773)
(8.41675e-05 8.41562e-05 1.9442)
(-8.41566e-05 8.41672e-05 1.9442)
(-0.000189406 7.31524e-05 1.88773)
(-0.000132563 5.5769e-05 1.77609)
(0.000111218 3.86416e-05 1.61193)
(0.000506731 2.56119e-05 1.39933)
(-0.000506709 -2.56163e-05 1.39933)
(-0.000111194 -3.86468e-05 1.61193)
(0.000132587 -5.5773e-05 1.77609)
(0.000189432 -7.31528e-05 1.88773)
(8.41827e-05 -8.4167e-05 1.9442)
(-8.41422e-05 -8.41568e-05 1.9442)
(-0.000189394 -7.3123e-05 1.88773)
(-0.000132554 -5.57257e-05 1.77609)
(0.000111223 -3.85887e-05 1.61193)
(0.000506732 -2.55557e-05 1.39933)
(-0.000496884 -5.55108e-05 1.36571)
(-0.000122315 -8.28438e-05 1.5696)
(0.000105633 -0.000121407 1.72683)
(0.000162669 -0.000162648 1.83369)
(7.31705e-05 -0.000189416 1.88773)
(-7.31058e-05 -0.000189407 1.88773)
(-0.000162608 -0.000162624 1.83369)
(-0.000105582 -0.000121367 1.72683)
(0.000122356 -8.27926e-05 1.56961)
(0.000496914 -5.54566e-05 1.36571)
(-0.00046602 -2.66316e-05 1.29934)
(-0.000129642 -3.92427e-05 1.48596)
(6.75296e-05 -6.75051e-05 1.62941)
(0.000121428 -0.000105611 1.72683)
(5.57893e-05 -0.000132569 1.77609)
(-5.57071e-05 -0.000132564 1.77609)
(-0.000121351 -0.000105593 1.72683)
(-6.74633e-05 -6.74766e-05 1.62941)
(0.000129693 -3.92053e-05 1.48596)
(0.000466056 -2.65909e-05 1.29934)
(-0.000399059 8.49249e-05 1.20213)
(-0.000114673 0.000114701 1.36287)
(3.92669e-05 0.000129668 1.48596)
(8.28638e-05 0.000122338 1.5696)
(3.86622e-05 0.000111213 1.61193)
(-3.85704e-05 0.000111216 1.61193)
(-8.27764e-05 0.000122348 1.56961)
(-3.91926e-05 0.000129684 1.48596)
(0.000114731 0.00011472 1.36287)
(0.000399101 8.4948e-05 1.20213)
(-0.000295576 0.000295605 1.07865)
(-8.48985e-05 0.000399089 1.20213)
(2.66547e-05 0.000466045 1.29934)
(5.55311e-05 0.000496904 1.36571)
(2.56318e-05 0.000506726 1.39933)
(-2.55386e-05 0.000506728 1.39933)
(-5.54422e-05 0.000496909 1.36571)
(-2.65802e-05 0.00046605 1.29934)
(8.49565e-05 0.000399094 1.20213)
(0.000295621 0.000295616 1.07865)
(-0.000395338 -0.000395336 1.17819)
(-0.000478329 -0.000479557 1.30331)
(-0.000452334 -0.000565981 1.40055)
(-0.000318638 -0.000637244 1.46635)
(-0.000114401 -0.000677785 1.49949)
(0.000114322 -0.000677785 1.49949)
(0.000318564 -0.000637244 1.46635)
(0.00045227 -0.000565981 1.40055)
(0.000478278 -0.000479558 1.30331)
(0.000395301 -0.000395337 1.17819)
(-0.000479557 -0.000478328 1.30331)
(-0.000617428 -0.000617427 1.46355)
(-0.000587729 -0.000735941 1.58445)
(-0.000417424 -0.000827935 1.66581)
(-0.000150499 -0.000878773 1.70675)
(0.000150417 -0.000878773 1.70675)
(0.000417347 -0.000827935 1.66581)
(0.000587663 -0.000735939 1.58445)
(0.000617375 -0.000617423 1.46355)
(0.00047952 -0.000478324 1.30331)
(-0.00056598 -0.000452335 1.40055)
(-0.000735941 -0.000587729 1.58445)
(-0.000705983 -0.000705984 1.72365)
(-0.000503738 -0.000795841 1.81725)
(-0.000182032 -0.000844719 1.86434)
(0.000181952 -0.000844719 1.86434)
(0.000503665 -0.000795838 1.81725)
(0.000705922 -0.000705978 1.72365)
(0.000735891 -0.00058772 1.58445)
(0.000565944 -0.000452324 1.40055)
(-0.000637242 -0.00031864 1.46635)
(-0.000827933 -0.000417426 1.66581)
(-0.000795837 -0.000503742 1.81725)
(-0.000568723 -0.000568729 1.91921)
(-0.000205669 -0.000603769 1.97053)
(0.000205598 -0.000603768 1.97053)
(0.00056866 -0.000568723 1.91921)
(0.000795784 -0.000503731 1.81725)
(0.000827889 -0.000417412 1.66581)
(0.000637209 -0.000318624 1.46635)
(-0.000677782 -0.000114405 1.49949)
(-0.000878768 -0.000150505 1.70675)
(-0.000844711 -0.000182038 1.86434)
(-0.00060376 -0.000205677 1.97053)
(-0.000218359 -0.000218371 2.02399)
(0.000218302 -0.000218367 2.02399)
(0.000603709 -0.000205667 1.97053)
(0.000844669 -0.000182023 1.86433)
(0.000878733 -0.000150486 1.70675)
(0.000677755 -0.000114385 1.49949)
(-0.000677781 0.000114317 1.49949)
(-0.000878764 0.000150411 1.70675)
(-0.000844706 0.000181945 1.86433)
(-0.000603754 0.000205589 1.97053)
(-0.000218352 0.000218289 2.02399)
(0.000218309 0.000218293 2.02399)
(0.000603714 0.000205601 1.97053)
(0.000844674 0.000181962 1.86434)
(0.000878738 0.000150431 1.70675)
(0.000677761 0.000114338 1.49949)
(-0.000637239 0.000318559 1.46635)
(-0.000827923 0.000417341 1.66581)
(-0.000795823 0.000503656 1.81725)
(-0.000568707 0.000568649 1.91921)
(-0.000205649 0.000603694 1.97053)
(0.00020562 0.000603698 1.97053)
(0.00056868 0.00056866 1.91921)
(0.0007958 0.000503674 1.81725)
(0.000827905 0.000417361 1.66581)
(0.000637224 0.00031858 1.46635)
(-0.000565974 0.000452266 1.40055)
(-0.000735927 0.000587656 1.58445)
(-0.000705963 0.000705911 1.72365)
(-0.000503712 0.000795771 1.81725)
(-0.000182002 0.000844654 1.86433)
(0.000181983 0.000844657 1.86434)
(0.000503695 0.000795782 1.81725)
(0.000705947 0.000705927 1.72365)
(0.000735914 0.000587674 1.58445)
(0.000565964 0.000452284 1.40055)
(-0.000479549 0.000478273 1.3033)
(-0.000617412 0.000617369 1.46355)
(-0.000587705 0.000735884 1.58445)
(-0.000417393 0.00082788 1.66581)
(-0.000150465 0.000878721 1.70675)
(0.000150453 0.000878724 1.70675)
(0.000417382 0.000827888 1.66581)
(0.000587694 0.000735896 1.58445)
(0.000617402 0.000617383 1.46355)
(0.000479541 0.000478287 1.30331)
(-0.000395328 0.000395297 1.17819)
(-0.000478312 0.000479516 1.3033)
(-0.00045231 0.000565941 1.40055)
(-0.000318607 0.000637204 1.46635)
(-0.000114366 0.000677747 1.49949)
(0.000114358 0.000677749 1.49949)
(0.000318599 0.00063721 1.46635)
(0.000452302 0.000565949 1.40055)
(0.000478304 0.000479526 1.30331)
(0.000395321 0.000395308 1.17819)
(-7.98981e-05 -7.99278e-05 1.11842)
(-1.60109e-05 -0.000135088 1.24144)
(1.00467e-05 -0.000184171 1.3375)
(1.47372e-05 -0.000218931 1.40271)
(6.34805e-06 -0.000236773 1.43562)
(-6.31166e-06 -0.000236771 1.43562)
(-1.47024e-05 -0.000218925 1.40271)
(-1.00152e-05 -0.000184162 1.3375)
(1.60381e-05 -0.000135078 1.24144)
(7.99213e-05 -7.99161e-05 1.11842)
(-0.000135059 -1.60435e-05 1.24144)
(-6.16813e-05 -6.17153e-05 1.3999)
(-2.76828e-05 -0.000112528 1.52002)
(-9.97227e-06 -0.000152282 1.60107)
(-2.24951e-06 -0.000173832 1.64191)
(2.284e-06 -0.00017383 1.64191)
(1.0005e-05 -0.000152277 1.60107)
(2.77123e-05 -0.000112521 1.52002)
(6.17067e-05 -6.17065e-05 1.3999)
(0.00013508 -1.60344e-05 1.24144)
(-0.000184144 1.00117e-05 1.3375)
(-0.000112495 -2.77208e-05 1.52002)
(-7.10046e-05 -7.10425e-05 1.65873)
(-3.93156e-05 -0.000106798 1.75219)
(-1.26542e-05 -0.000126824 1.79923)
(1.26856e-05 -0.000126823 1.79923)
(3.93449e-05 -0.000106795 1.75219)
(7.10308e-05 -7.10376e-05 1.65873)
(0.000112516 -2.77144e-05 1.52002)
(0.00018416 1.00177e-05 1.3375)
(-0.000218908 1.47002e-05 1.40271)
(-0.000152252 -1.00133e-05 1.60107)
(-0.000106761 -3.9357e-05 1.75219)
(-6.42808e-05 -6.43215e-05 1.85406)
(-2.16378e-05 -7.85652e-05 1.90534)
(2.16642e-05 -7.8565e-05 1.90534)
(6.4307e-05 -6.43195e-05 1.85406)
(0.000106784 -3.93529e-05 1.75219)
(0.00015227 -1.00082e-05 1.60107)
(0.000218921 1.47054e-05 1.40271)
(-0.000236755 6.31138e-06 1.43562)
(-0.000173804 -2.28981e-06 1.64191)
(-0.000126789 -1.26965e-05 1.79923)
(-7.85264e-05 -2.16795e-05 1.90534)
(-2.68072e-05 -2.68476e-05 1.95876)
(2.68301e-05 -2.68468e-05 1.95876)
(7.85499e-05 -2.16773e-05 1.90534)
(0.00012681 -1.26925e-05 1.79923)
(0.000173821 -2.2849e-06 1.64191)
(0.000236766 6.31651e-06 1.43562)
(-0.000236756 -6.3455e-06 1.43562)
(-0.000173807 2.24701e-06 1.64191)
(-0.000126792 1.26455e-05 1.79923)
(-7.85287e-05 2.16242e-05 1.90534)
(-2.68086e-05 2.67905e-05 1.95876)
(2.68294e-05 2.67917e-05 1.95876)
(7.85499e-05 2.16265e-05 1.90534)
(0.000126811 1.26492e-05 1.79923)
(0.000173821 2.25029e-06 1.64191)
(0.000236766 -6.34226e-06 1.43562)
(-0.000218913 -1.47325e-05 1.40271)
(-0.000152258 9.97291e-06 1.60107)
(-0.000106768 3.93102e-05 1.75218)
(-6.4287e-05 6.42705e-05 1.85406)
(-2.16425e-05 7.85125e-05 1.90534)
(2.16616e-05 7.85134e-05 1.90534)
(6.43064e-05 6.42724e-05 1.85406)
(0.000106785 3.93118e-05 1.75219)
(0.00015227 9.97311e-06 1.60107)
(0.000218922 -1.47328e-05 1.40271)
(-0.000184152 -1.00408e-05 1.3375)
(-0.000112505 2.76846e-05 1.52002)
(-7.10166e-05 7.10018e-05 1.65873)
(-3.93269e-05 0.000106753 1.75218)
(-1.26634e-05 0.000126777 1.79923)
(1.26802e-05 0.000126778 1.79923)
(3.93428e-05 0.000106753 1.75219)
(7.10294e-05 7.10003e-05 1.65873)
(0.000112515 2.76825e-05 1.52002)
(0.00018416 -1.00432e-05 1.33751)
(-0.00013507 1.60173e-05 1.24144)
(-6.16949e-05 6.16836e-05 1.3999)
(-2.76984e-05 0.000112492 1.52002)
(-9.98794e-06 0.000152244 1.60107)
(-2.26257e-06 0.000173794 1.64191)
(2.27552e-06 0.000173794 1.64191)
(9.99987e-06 0.000152244 1.60107)
(2.77079e-05 0.00011249 1.52002)
(6.17027e-05 6.16807e-05 1.3999)
(0.000135077 1.60147e-05 1.24144)
(-7.99103e-05 7.99043e-05 1.11842)
(-1.60268e-05 0.000135061 1.24144)
(1.00289e-05 0.000184142 1.3375)
(1.472e-05 0.000218902 1.40271)
(6.33332e-06 0.000236745 1.43562)
(-6.32258e-06 0.000236746 1.43562)
(-1.47109e-05 0.000218901 1.40271)
(-1.00219e-05 0.000184141 1.33751)
(1.6033e-05 0.000135061 1.24144)
(7.99183e-05 7.99051e-05 1.11842)
(-7.85291e-06 -7.86706e-06 1.15694)
(-4.72831e-05 6.31266e-06 1.28111)
(-5.70498e-05 1.69252e-05 1.37771)
(-4.40863e-05 2.27822e-05 1.4431)
(-1.63699e-05 2.51406e-05 1.47605)
(1.64012e-05 2.51423e-05 1.47605)
(4.41139e-05 2.27863e-05 1.4431)
(5.70728e-05 1.69315e-05 1.37771)
(4.73011e-05 6.31931e-06 1.28111)
(7.86562e-06 -7.86006e-06 1.15694)
(6.3278e-06 -4.7302e-05 1.28111)
(-4.51888e-05 -4.52078e-05 1.44031)
(-5.90659e-05 -3.95043e-05 1.56046)
(-4.73445e-05 -3.57385e-05 1.64129)
(-1.78538e-05 -3.41148e-05 1.68195)
(1.78866e-05 -3.4115e-05 1.68195)
(4.73738e-05 -3.57379e-05 1.64129)
(5.90905e-05 -3.95014e-05 1.56046)
(4.52069e-05 -4.52035e-05 1.44031)
(-6.3156e-06 -4.72982e-05 1.28111)
(1.69404e-05 -5.70704e-05 1.37771)
(-3.94861e-05 -5.90872e-05 1.56046)
(-5.79586e-05 -5.79794e-05 1.69871)
(-4.82596e-05 -5.6981e-05 1.79158)
(-1.8469e-05 -5.65717e-05 1.83826)
(1.84967e-05 -5.65731e-05 1.83826)
(4.82864e-05 -5.69827e-05 1.79158)
(5.79818e-05 -5.79801e-05 1.69871)
(3.95021e-05 -5.90873e-05 1.56046)
(-1.6931e-05 -5.70705e-05 1.37771)
(2.27952e-05 -4.41071e-05 1.4431)
(-3.57234e-05 -4.73665e-05 1.64129)
(-5.69637e-05 -4.82811e-05 1.79158)
(-4.86614e-05 -4.86797e-05 1.8926)
(-1.88055e-05 -4.89051e-05 1.94336)
(1.88235e-05 -4.89066e-05 1.94336)
(4.86803e-05 -4.86832e-05 1.8926)
(5.69802e-05 -4.82853e-05 1.79158)
(3.57339e-05 -4.73704e-05 1.64129)
(-2.27902e-05 -4.41103e-05 1.4431)
(2.5151e-05 -1.63913e-05 1.47605)
(-3.41031e-05 -1.78768e-05 1.68195)
(-5.65583e-05 -1.849e-05 1.83826)
(-4.88914e-05 -1.88235e-05 1.94336)
(-1.89834e-05 -1.89961e-05 1.99618)
(1.89875e-05 -1.89969e-05 1.99618)
(4.88981e-05 -1.88268e-05 1.94336)
(5.65658e-05 -1.84961e-05 1.83826)
(3.41072e-05 -1.78826e-05 1.68195)
(-2.51505e-05 -1.6396e-05 1.47605)
(2.51481e-05 1.63813e-05 1.47605)
(-3.41073e-05 1.78658e-05 1.68195)
(-5.65645e-05 1.84771e-05 1.83826)
(-4.88988e-05 1.88062e-05 1.94336)
(-1.89902e-05 1.89756e-05 1.99618)
(1.89806e-05 1.89756e-05 1.99618)
(4.88904e-05 1.88052e-05 1.94336)
(5.6559e-05 1.84729e-05 1.83826)
(3.41029e-05 1.78601e-05 1.68195)
(-2.51517e-05 1.63774e-05 1.47605)
(2.27867e-05 4.4097e-05 1.4431)
(-3.57353e-05 4.73557e-05 1.64129)
(-5.69811e-05 4.82676e-05 1.79158)
(-4.86827e-05 4.86638e-05 1.8926)
(-1.88268e-05 4.88865e-05 1.94336)
(1.88033e-05 4.88863e-05 1.94336)
(4.86602e-05 4.86633e-05 1.8926)
(5.69621e-05 4.82661e-05 1.79158)
(3.57213e-05 4.73522e-05 1.64129)
(-2.27963e-05 4.40959e-05 1.4431)
(1.69272e-05 5.70582e-05 1.37771)
(-3.95061e-05 5.90732e-05 1.56045)
(-5.79862e-05 5.79638e-05 1.69871)
(-4.82916e-05 5.69648e-05 1.79158)
(-1.85025e-05 5.65552e-05 1.83826)
(1.84644e-05 5.65553e-05 1.83826)
(4.82558e-05 5.69654e-05 1.79158)
(5.79545e-05 5.79645e-05 1.69871)
(3.94827e-05 5.90741e-05 1.56046)
(-1.69417e-05 5.70604e-05 1.37771)
(6.3099e-06 4.72873e-05 1.28111)
(-4.52149e-05 4.51914e-05 1.4403)
(-5.90994e-05 3.94879e-05 1.56045)
(-4.73828e-05 3.57226e-05 1.64129)
(-1.7895e-05 3.40998e-05 1.68195)
(1.78458e-05 3.41001e-05 1.68195)
(4.73359e-05 3.57244e-05 1.64129)
(5.90582e-05 3.94916e-05 1.56046)
(4.51834e-05 4.51979e-05 1.44031)
(-6.33042e-06 4.72949e-05 1.28111)
(-7.87315e-06 7.85293e-06 1.15694)
(-4.73126e-05 -6.3283e-06 1.28111)
(-5.7086e-05 -1.69414e-05 1.37771)
(-4.41271e-05 -2.27977e-05 1.4431)
(-1.64139e-05 -2.51551e-05 1.47605)
(1.63578e-05 -2.51539e-05 1.47605)
(4.40753e-05 -2.27944e-05 1.4431)
(5.70412e-05 -1.6935e-05 1.37771)
(4.72776e-05 -6.31863e-06 1.28111)
(7.8495e-06 7.86432e-06 1.15694)
(5.29554e-06 5.29535e-06 1.13264)
(3.01904e-05 -3.65612e-06 1.25608)
(3.62864e-05 -1.03752e-05 1.35234)
(2.79961e-05 -1.41105e-05 1.41761)
(1.0389e-05 -1.56276e-05 1.45053)
(-1.04066e-05 -1.56263e-05 1.45053)
(-2.80117e-05 -1.41068e-05 1.41761)
(-3.62996e-05 -1.03712e-05 1.35234)
(-3.01997e-05 -3.6487e-06 1.25608)
(-5.29894e-06 5.30547e-06 1.13264)
(-3.6573e-06 3.01899e-05 1.25608)
(2.88141e-05 2.88153e-05 1.41481)
(3.74287e-05 2.50777e-05 1.53492)
(2.99095e-05 2.25266e-05 1.61587)
(1.12621e-05 2.13807e-05 1.65664)
(-1.12842e-05 2.13826e-05 1.65664)
(-2.99299e-05 2.25322e-05 1.61587)
(-3.74449e-05 2.50852e-05 1.53492)
(-2.88245e-05 2.88262e-05 1.4148)
(3.65172e-06 3.02023e-05 1.25608)
(-1.0379e-05 3.62851e-05 1.35234)
(2.50729e-05 3.74296e-05 1.53492)
(3.64652e-05 3.64707e-05 1.67343)
(3.02154e-05 3.5531e-05 1.76664)
(1.15324e-05 3.50612e-05 1.81353)
(-1.15586e-05 3.50633e-05 1.81353)
(-3.02406e-05 3.55377e-05 1.76664)
(-3.64863e-05 3.64817e-05 1.67343)
(-2.50881e-05 3.74433e-05 1.53492)
(1.03695e-05 3.62997e-05 1.35234)
(-1.41163e-05 2.79938e-05 1.41761)
(2.25184e-05 2.99107e-05 1.61587)
(3.55206e-05 3.02217e-05 1.76664)
(3.01493e-05 3.01618e-05 1.86814)
(1.16045e-05 3.00921e-05 1.9192)
(-1.16395e-05 3.0094e-05 1.9192)
(-3.01814e-05 3.01687e-05 1.86814)
(-3.55479e-05 3.02336e-05 1.76664)
(-2.25394e-05 2.99256e-05 1.61587)
(1.41026e-05 2.80109e-05 1.41761)
(-1.56369e-05 1.03871e-05 1.45053)
(2.1368e-05 1.12644e-05 1.65664)
(3.50447e-05 1.15387e-05 1.81353)
(3.00726e-05 1.16182e-05 1.9192)
(1.16169e-05 1.16382e-05 1.97236)
(-1.16623e-05 1.16409e-05 1.97236)
(-3.0114e-05 1.1626e-05 1.9192)
(-3.50807e-05 1.15522e-05 1.81353)
(-2.13961e-05 1.12815e-05 1.65664)
(1.56176e-05 1.04074e-05 1.45053)
(-1.56387e-05 -1.04076e-05 1.45053)
(2.13641e-05 -1.12815e-05 1.65664)
(3.50399e-05 -1.15524e-05 1.81353)
(3.00672e-05 -1.16256e-05 1.9192)
(1.1611e-05 -1.16403e-05 1.97236)
(-1.16679e-05 -1.16371e-05 1.97236)
(-3.01188e-05 -1.1617e-05 1.9192)
(-3.50843e-05 -1.15371e-05 1.81353)
(-2.13993e-05 -1.1262e-05 1.65664)
(1.5614e-05 -1.03848e-05 1.45053)
(-1.41229e-05 -2.8014e-05 1.41761)
(2.25075e-05 -2.99282e-05 1.61587)
(3.55074e-05 -3.02341e-05 1.76664)
(3.01351e-05 -3.01688e-05 1.86814)
(1.15885e-05 -3.00936e-05 1.9192)
(-1.16558e-05 -3.00899e-05 1.9192)
(-3.01959e-05 -3.01583e-05 1.86814)
(-3.55601e-05 -3.02176e-05 1.76664)
(-2.255e-05 -2.99064e-05 1.61587)
(1.40926e-05 -2.799e-05 1.41761)
(-1.039e-05 -3.63038e-05 1.35234)
(2.50571e-05 -3.74463e-05 1.53492)
(3.64456e-05 -3.64819e-05 1.67343)
(3.01928e-05 -3.55376e-05 1.76664)
(1.15079e-05 -3.50628e-05 1.81353)
(-1.15818e-05 -3.50591e-05 1.81353)
(-3.02611e-05 -3.55261e-05 1.76664)
(-3.65048e-05 -3.64645e-05 1.67343)
(-2.51054e-05 -3.74228e-05 1.53492)
(1.03544e-05 -3.62783e-05 1.35234)
(-3.67145e-06 -3.02051e-05 1.25608)
(2.87948e-05 -2.88287e-05 1.4148)
(3.74053e-05 -2.50875e-05 1.53492)
(2.98826e-05 -2.25327e-05 1.61587)
(1.12337e-05 -2.13817e-05 1.65664)
(-1.13104e-05 -2.13775e-05 1.65664)
(-2.99532e-05 -2.2521e-05 1.61587)
(-3.74667e-05 -2.50695e-05 1.53492)
(-2.88457e-05 -2.88061e-05 1.41481)
(3.63306e-06 -3.01801e-05 1.25608)
(5.28017e-06 -5.30494e-06 1.13264)
(3.01697e-05 3.64709e-06 1.25608)
(3.62617e-05 1.0368e-05 1.35234)
(2.79687e-05 1.41056e-05 1.41761)
(1.03612e-05 1.56267e-05 1.45053)
(-1.04325e-05 1.56311e-05 1.45053)
(-2.8036e-05 1.41161e-05 1.41761)
(-3.63216e-05 1.03844e-05 1.35234)
(-3.02202e-05 3.66735e-06 1.25608)
(-5.31702e-06 -5.28315e-06 1.13264)
(-1.52413e-07 -1.50062e-07 1.14796)
(-1.5901e-05 6.60611e-06 1.27187)
(-2.01113e-05 1.19469e-05 1.36836)
(-1.57531e-05 1.51721e-05 1.43371)
(-5.87521e-06 1.66114e-05 1.46665)
(5.88357e-06 1.66131e-05 1.46665)
(1.57604e-05 1.51765e-05 1.43371)
(2.01183e-05 1.19532e-05 1.36835)
(1.59089e-05 6.61432e-06 1.27187)
(1.60909e-07 -1.40216e-07 1.14796)
(6.60316e-06 -1.58991e-05 1.27187)
(-1.35845e-05 -1.35817e-05 1.43091)
(-1.94283e-05 -9.78757e-06 1.55107)
(-1.59356e-05 -7.01656e-06 1.63196)
(-6.05255e-06 -5.64028e-06 1.67268)
(6.05687e-06 -5.63916e-06 1.67268)
(1.59396e-05 -7.01218e-06 1.63196)
(1.94335e-05 -9.77873e-06 1.55107)
(1.35911e-05 -1.3569e-05 1.43091)
(-6.59574e-06 -1.58863e-05 1.27187)
(1.19422e-05 -2.01098e-05 1.36836)
(-9.7927e-06 -1.9425e-05 1.55107)
(-1.73924e-05 -1.73869e-05 1.68945)
(-1.50714e-05 -1.56166e-05 1.78248)
(-5.83572e-06 -1.46524e-05 1.82925)
(5.8332e-06 -1.46512e-05 1.82925)
(1.50716e-05 -1.56114e-05 1.78248)
(1.73958e-05 -1.73766e-05 1.68945)
(9.79679e-06 -1.94114e-05 1.55107)
(-1.19378e-05 -2.00957e-05 1.36835)
(1.51665e-05 -1.57522e-05 1.43371)
(-7.02457e-06 -1.5932e-05 1.63196)
(-1.56263e-05 -1.50648e-05 1.78248)
(-1.4156e-05 -1.4145e-05 1.88371)
(-5.56151e-06 -1.35983e-05 1.9346)
(5.55184e-06 -1.35962e-05 1.9346)
(1.41506e-05 -1.41388e-05 1.88371)
(1.56251e-05 -1.5055e-05 1.78248)
(7.02497e-06 -1.59196e-05 1.63196)
(-1.51651e-05 -1.5739e-05 1.43371)
(1.66045e-05 -5.87561e-06 1.46665)
(-5.65119e-06 -6.05001e-06 1.67268)
(-1.46659e-05 -5.82833e-06 1.82925)
(-1.3614e-05 -5.54944e-06 1.9346)
(-5.3902e-06 -5.37342e-06 1.98758)
(5.37399e-06 -5.37066e-06 1.98758)
(1.36021e-05 -5.54269e-06 1.9346)
(1.46595e-05 -5.81948e-06 1.82925)
(5.64751e-06 -6.03874e-06 1.67268)
(-1.6606e-05 -5.86329e-06 1.46665)
(1.66037e-05 5.88263e-06 1.46665)
(-5.65217e-06 6.05947e-06 1.67268)
(-1.46681e-05 5.84061e-06 1.82925)
(-1.36173e-05 5.56343e-06 1.9346)
(-5.39284e-06 5.3902e-06 1.98758)
(5.37191e-06 5.39282e-06 1.98758)
(1.35992e-05 5.57042e-06 1.9346)
(1.46563e-05 5.8495e-06 1.82925)
(5.6454e-06 6.06994e-06 1.67268)
(-1.66069e-05 5.89487e-06 1.46665)
(1.51643e-05 1.57595e-05 1.43371)
(-7.02767e-06 1.59412e-05 1.63196)
(-1.56322e-05 1.50756e-05 1.78248)
(-1.41642e-05 1.41587e-05 1.88371)
(-5.56908e-06 1.36156e-05 1.9346)
(5.54551e-06 1.36177e-05 1.9346)
(1.41432e-05 1.41656e-05 1.88371)
(1.5617e-05 1.50855e-05 1.78248)
(7.01879e-06 1.59519e-05 1.63196)
(-1.51696e-05 1.57712e-05 1.43371)
(1.19392e-05 2.01157e-05 1.36835)
(-9.79786e-06 1.94312e-05 1.55107)
(-1.74009e-05 1.73952e-05 1.68945)
(-1.50819e-05 1.56288e-05 1.78248)
(-5.84661e-06 1.46692e-05 1.82925)
(5.82355e-06 1.46713e-05 1.82925)
(1.50615e-05 1.56359e-05 1.78248)
(1.73849e-05 1.74054e-05 1.68945)
(9.78763e-06 1.94426e-05 1.55107)
(-1.19452e-05 2.01261e-05 1.36835)
(6.59984e-06 1.59038e-05 1.27187)
(-1.35898e-05 1.35864e-05 1.43091)
(-1.94356e-05 9.79504e-06 1.55107)
(-1.59451e-05 7.02737e-06 1.63196)
(-6.064e-06 5.65546e-06 1.67268)
(6.04537e-06 5.65751e-06 1.67268)
(1.59284e-05 7.03362e-06 1.63196)
(1.9422e-05 9.80404e-06 1.55107)
(1.35798e-05 1.35971e-05 1.43091)
(-6.6066e-06 1.59132e-05 1.27187)
(-1.54649e-07 1.552e-07 1.14796)
(-1.59046e-05 -6.59996e-06 1.27187)
(-2.01166e-05 -1.19392e-05 1.36835)
(-1.57606e-05 -1.5163e-05 1.43371)
(-5.88505e-06 -1.65999e-05 1.46665)
(5.87238e-06 -1.6598e-05 1.46665)
(1.57495e-05 -1.51585e-05 1.43371)
(2.01076e-05 -1.1933e-05 1.36835)
(1.58975e-05 -6.59293e-06 1.27187)
(1.49177e-07 1.61706e-07 1.14796)
(9.63788e-07 9.82897e-07 1.13826)
(1.09085e-05 -2.99516e-06 1.26188)
(1.34759e-05 -6.07783e-06 1.35822)
(1.04897e-05 -7.88522e-06 1.42353)
(3.91514e-06 -8.66573e-06 1.45646)
(-3.8856e-06 -8.66507e-06 1.45646)
(-1.04614e-05 -7.88365e-06 1.42353)
(-1.34511e-05 -6.07739e-06 1.35822)
(-1.08882e-05 -2.99341e-06 1.26188)
(-9.46646e-07 9.84931e-07 1.13826)
(-3.01462e-06 1.09316e-05 1.26188)
(9.83505e-06 9.85787e-06 1.42073)
(1.34277e-05 7.85152e-06 1.54086)
(1.08886e-05 6.41934e-06 1.6218)
(4.13312e-06 5.72999e-06 1.66255)
(-4.09702e-06 5.73042e-06 1.66255)
(-1.08551e-05 6.42044e-06 1.6218)
(-1.33973e-05 7.85223e-06 1.54086)
(-9.80845e-06 9.86014e-06 1.42072)
(3.03473e-06 1.09344e-05 1.26188)
(-6.09605e-06 1.35e-05 1.35822)
(7.8294e-06 1.34522e-05 1.54086)
(1.25395e-05 1.25637e-05 1.67934)
(1.0642e-05 1.17774e-05 1.77249)
(4.10775e-06 1.13579e-05 1.81934)
(-4.06594e-06 1.1358e-05 1.81934)
(-1.06031e-05 1.17777e-05 1.77249)
(-1.25044e-05 1.25653e-05 1.67934)
(-7.79943e-06 1.34543e-05 1.54086)
(6.11881e-06 1.3502e-05 1.35822)
(-7.90051e-06 1.05132e-05 1.42353)
(6.39967e-06 1.09137e-05 1.6218)
(1.17548e-05 1.06669e-05 1.77249)
(1.03157e-05 1.03396e-05 1.87391)
(4.02813e-06 1.01409e-05 1.92491)
(-3.98354e-06 1.01409e-05 1.92491)
(-1.02727e-05 1.03404e-05 1.87391)
(-1.17155e-05 1.06682e-05 1.77249)
(-6.36612e-06 1.09143e-05 1.6218)
(7.92728e-06 1.0514e-05 1.42353)
(-8.67824e-06 3.93787e-06 1.45646)
(5.71286e-06 4.15788e-06 1.66255)
(1.13371e-05 4.13175e-06 1.81934)
(1.01185e-05 4.05245e-06 1.92491)
(3.9746e-06 3.9971e-06 1.97801)
(-3.92579e-06 3.99763e-06 1.97801)
(-1.00721e-05 4.05363e-06 1.92491)
(-1.1296e-05 4.13412e-06 1.81934)
(-5.67764e-06 4.15899e-06 1.66255)
(8.7073e-06 3.93945e-06 1.45646)
(-8.67418e-06 -3.86398e-06 1.45646)
(5.7156e-06 -4.07398e-06 1.66255)
(1.13395e-05 -4.04359e-06 1.81934)
(1.01203e-05 -3.96007e-06 1.92491)
(3.97562e-06 -3.90338e-06 1.97801)
(-3.92435e-06 -3.90308e-06 1.97801)
(-1.00703e-05 -3.95977e-06 1.92491)
(-1.1295e-05 -4.04179e-06 1.81934)