/*--------------------------------*- C++ -*----------------------------------*\
| =========                 |                                                 |
| \\      /  F ield         | OpenFOAM: The Open Source CFD Toolbox           |
|  \\    /   O peration     | Version:  2412                                  |
|   \\  /    A nd           | Website:  www.openfoam.com                      |
|    \\/     M anipulation  |                                                 |
\*---------------------------------------------------------------------------*/
FoamFile
{
    version     2.0;
    format      ascii;
    arch        "LSB;label=32;scalar=64";
    class       surfaceScalarField;
    location    "0.7";
    object      phi;
}
// * * * * * * * * * * * * * * * * * * * * * * * * * * * * * * * * * * * * * //

dimensions      [0 3 -1 0 0 0 0];

oriented        oriented;

internalField   nonuniform List<scalar> 
43700
(
7.75562e-08
7.75562e-08
5.04368e-07
-9.47307e-08
-9.47307e-08
5.5622e-08
6.57407e-08
5.43492e-07
-7.79148e-08
3.67957e-08
6.02803e-08
5.73132e-07
-7.51553e-08
1.82371e-08
5.64657e-08
5.93019e-07
-7.12143e-08
-7.0378e-15
5.46886e-08
6.03013e-07
-6.95355e-08
-1.82371e-08
5.46886e-08
6.03013e-07
-6.95355e-08
-3.67957e-08
5.64657e-08
5.93019e-07
-7.12143e-08
-5.5622e-08
6.02803e-08
5.73132e-07
-7.51553e-08
-7.75562e-08
6.57407e-08
5.43492e-07
-7.79148e-08
7.75562e-08
5.04368e-07
-9.47307e-08
-9.47307e-08
6.57407e-08
5.5622e-08
5.43492e-07
-7.79148e-08
4.92526e-08
4.92526e-08
5.78819e-07
3.27992e-08
4.48861e-08
6.05538e-07
1.6346e-08
4.19286e-08
6.23487e-07
3.42159e-15
4.0496e-08
6.32511e-07
-1.6346e-08
4.0496e-08
6.32511e-07
-3.27992e-08
4.19286e-08
6.23487e-07
-4.92526e-08
4.48861e-08
6.05538e-07
-6.57407e-08
4.92526e-08
5.78819e-07
5.5622e-08
5.43492e-07
-7.79148e-08
6.02803e-08
3.67957e-08
5.73132e-07
-7.51553e-08
4.48861e-08
3.27992e-08
6.05538e-07
2.9757e-08
2.9757e-08
6.30131e-07
1.4814e-08
2.77326e-08
6.46702e-07
1.86778e-15
2.67436e-08
6.55044e-07
-1.4814e-08
2.67436e-08
6.55044e-07
-2.9757e-08
2.77326e-08
6.46702e-07
-4.48861e-08
2.9757e-08
6.30131e-07
-6.02803e-08
3.27992e-08
6.05538e-07
3.67957e-08
5.73132e-07
-7.51553e-08
5.64657e-08
1.82371e-08
5.93019e-07
-7.12143e-08
4.19286e-08
1.6346e-08
6.23487e-07
2.77326e-08
1.4814e-08
6.46702e-07
1.37931e-08
1.37931e-08
6.62382e-07
2.5572e-16
1.32923e-08
6.70287e-07
-1.37931e-08
1.32923e-08
6.70287e-07
-2.77326e-08
1.37931e-08
6.62382e-07
-4.19286e-08
1.4814e-08
6.46702e-07
-5.64657e-08
1.6346e-08
6.23487e-07
1.82371e-08
5.93019e-07
-7.12143e-08
5.46886e-08
-2.87679e-15
6.03013e-07
-6.95355e-08
4.0496e-08
-9.66855e-17
6.32511e-07
2.67436e-08
-2.88255e-15
6.55044e-07
1.32922e-08
1.38886e-15
6.70287e-07
1.98507e-15
3.80589e-15
6.77977e-07
-1.32922e-08
6.40118e-15
6.77977e-07
-2.67436e-08
9.92623e-15
6.70287e-07
-4.0496e-08
1.09444e-14
6.55044e-07
-5.46886e-08
6.82855e-15
6.32511e-07
-1.52993e-15
6.03013e-07
-6.95355e-08
5.46886e-08
-1.82371e-08
6.03013e-07
-6.95355e-08
4.0496e-08
-1.6346e-08
6.32511e-07
2.67436e-08
-1.4814e-08
6.55044e-07
1.32923e-08
-1.37931e-08
6.70287e-07
5.65868e-15
-1.32922e-08
6.77977e-07
-1.32922e-08
-1.32922e-08
6.77977e-07
-2.67436e-08
-1.37931e-08
6.70287e-07
-4.0496e-08
-1.4814e-08
6.55044e-07
-5.46886e-08
-1.6346e-08
6.32511e-07
-1.82371e-08
6.03013e-07
-6.95355e-08
5.64657e-08
-3.67957e-08
5.93019e-07
-7.12143e-08
4.19286e-08
-3.27992e-08
6.23487e-07
2.77326e-08
-2.9757e-08
6.46702e-07
1.37931e-08
-2.77326e-08
6.62382e-07
7.28862e-15
-2.67436e-08
6.70287e-07
-1.37931e-08
-2.67436e-08
6.70287e-07
-2.77326e-08
-2.77326e-08
6.62382e-07
-4.19286e-08
-2.9757e-08
6.46702e-07
-5.64657e-08
-3.27991e-08
6.23487e-07
-3.67957e-08
5.93019e-07
-7.12143e-08
6.02803e-08
-5.5622e-08
5.73132e-07
-7.51553e-08
4.48861e-08
-4.92526e-08
6.05538e-07
2.97571e-08
-4.48861e-08
6.30131e-07
1.4814e-08
-4.19286e-08
6.46702e-07
6.22533e-15
-4.0496e-08
6.55044e-07
-1.4814e-08
-4.0496e-08
6.55044e-07
-2.9757e-08
-4.19286e-08
6.46702e-07
-4.48861e-08
-4.48861e-08
6.30131e-07
-6.02803e-08
-4.92526e-08
6.05538e-07
-5.5622e-08
5.73132e-07
-7.51553e-08
6.57407e-08
-7.75562e-08
5.43492e-07
-7.79148e-08
4.92526e-08
-6.57407e-08
5.78819e-07
3.27992e-08
-6.02803e-08
6.05538e-07
1.6346e-08
-5.64657e-08
6.23487e-07
5.41347e-15
-5.46886e-08
6.32511e-07
-1.6346e-08
-5.46886e-08
6.32511e-07
-3.27992e-08
-5.64657e-08
6.23487e-07
-4.92526e-08
-6.02803e-08
6.05538e-07
-6.57407e-08
-6.57407e-08
5.78819e-07
-7.75562e-08
5.43492e-07
-7.79148e-08
7.75562e-08
5.04368e-07
-9.47307e-08
-9.47307e-08
5.5622e-08
5.43492e-07
-7.79148e-08
3.67957e-08
5.73132e-07
-7.51553e-08
1.82371e-08
5.93019e-07
-7.12143e-08
7.79994e-17
6.03013e-07
-6.95355e-08
-1.82371e-08
6.03013e-07
-6.95355e-08
-3.67957e-08
5.93019e-07
-7.12143e-08
-5.5622e-08
5.73132e-07
-7.51553e-08
-7.75562e-08
5.43492e-07
-7.79148e-08
5.04368e-07
-9.47307e-08
-9.47307e-08
2.84631e-08
2.84631e-08
5.09799e-07
-3.11786e-08
-3.11786e-08
2.25431e-08
2.77341e-08
5.50984e-07
-2.93055e-08
1.59279e-08
2.79217e-08
5.82321e-07
-3.04955e-08
8.18874e-09
2.78555e-08
6.03387e-07
-3.04842e-08
3.4689e-16
2.78009e-08
6.13979e-07
-3.05785e-08
-8.18875e-09
2.78009e-08
6.13979e-07
-3.05785e-08
-1.5928e-08
2.78555e-08
6.03387e-07
-3.04842e-08
-2.25431e-08
2.79218e-08
5.82321e-07
-3.04955e-08
-2.84631e-08
2.77341e-08
5.50984e-07
-2.93055e-08
2.84631e-08
5.09799e-07
-3.11786e-08
-3.11786e-08
2.77342e-08
2.25431e-08
5.50984e-07
-2.93055e-08
2.28507e-08
2.28507e-08
5.88586e-07
1.62367e-08
2.29633e-08
6.17111e-07
8.41555e-09
2.28846e-08
6.36279e-07
-1.43185e-15
2.28169e-08
6.4591e-07
-8.41555e-09
2.28169e-08
6.4591e-07
-1.62367e-08
2.28846e-08
6.36279e-07
-2.28507e-08
2.29633e-08
6.17111e-07
-2.77341e-08
2.28507e-08
5.88586e-07
2.25431e-08
5.50984e-07
-2.93055e-08
2.79218e-08
1.59279e-08
5.82321e-07
-3.04955e-08
2.29633e-08
1.62367e-08
6.17111e-07
1.62798e-08
1.62798e-08
6.43498e-07
8.42801e-09
1.62009e-08
6.61237e-07
1.24689e-15
1.61371e-08
6.70152e-07
-8.42801e-09
1.61371e-08
6.70152e-07
-1.62797e-08
1.62009e-08
6.61237e-07
-2.29633e-08
1.62798e-08
6.43498e-07
-2.79217e-08
1.62367e-08
6.17111e-07
1.59279e-08
5.82321e-07
-3.04955e-08
2.78555e-08
8.18875e-09
6.03387e-07
-3.04842e-08
2.28846e-08
8.41554e-09
6.36279e-07
1.62009e-08
8.42801e-09
6.61237e-07
8.38019e-09
8.38019e-09
6.78023e-07
-2.13951e-16
8.34229e-09
6.86461e-07
-8.38019e-09
8.3423e-09
6.86461e-07
-1.62009e-08
8.3802e-09
6.78023e-07
-2.28846e-08
8.42802e-09
6.61237e-07
-2.78555e-08
8.41555e-09
6.36279e-07
8.18874e-09
6.03387e-07
-3.04842e-08
2.78009e-08
1.12729e-15
6.13979e-07
-3.05785e-08
2.28169e-08
-3.98033e-15
6.4591e-07
1.61371e-08
-2.16264e-15
6.70152e-07
8.34229e-09
-1.38062e-15
6.86461e-07
6.43021e-16
1.28819e-15
6.94662e-07
-8.34229e-09
3.22101e-15
6.94662e-07
-1.61371e-08
6.31756e-15
6.86461e-07
-2.28169e-08
1.08322e-14
6.70152e-07
-2.78009e-08
2.34369e-15
6.45911e-07
-1.46398e-15
6.13979e-07
-3.05785e-08
2.78009e-08
-8.18874e-09
6.13979e-07
-3.05785e-08
2.28169e-08
-8.41555e-09
6.4591e-07
1.61371e-08
-8.42801e-09
6.70152e-07
8.3423e-09
-8.38019e-09
6.86461e-07
3.4279e-15
-8.34229e-09
6.94662e-07
-8.34229e-09
-8.34229e-09
6.94662e-07
-1.61371e-08
-8.38019e-09
6.86461e-07
-2.28169e-08
-8.428e-09
6.70152e-07
-2.78009e-08
-8.41555e-09
6.45911e-07
-8.18875e-09
6.13979e-07
-3.05785e-08
2.78555e-08
-1.5928e-08
6.03387e-07
-3.04842e-08
2.28846e-08
-1.62367e-08
6.36279e-07
1.62009e-08
-1.62798e-08
6.61237e-07
8.3802e-09
-1.62009e-08
6.78023e-07
6.30403e-15
-1.61371e-08
6.86461e-07
-8.38018e-09
-1.61371e-08
6.86461e-07
-1.62009e-08
-1.62009e-08
6.78023e-07
-2.28846e-08
-1.62797e-08
6.61237e-07
-2.78555e-08
-1.62367e-08
6.36279e-07
-1.5928e-08
6.03387e-07
-3.04842e-08
2.79217e-08
-2.25431e-08
5.82321e-07
-3.04955e-08
2.29633e-08
-2.28507e-08
6.17111e-07
1.62798e-08
-2.29633e-08
6.43498e-07
8.42801e-09
-2.28846e-08
6.61237e-07
4.92533e-15
-2.28169e-08
6.70152e-07
-8.42801e-09
-2.28169e-08
6.70152e-07
-1.62798e-08
-2.28846e-08
6.61237e-07
-2.29633e-08
-2.29633e-08
6.43498e-07
-2.79218e-08
-2.28507e-08
6.17111e-07
-2.25431e-08
5.82321e-07
-3.04955e-08
2.77341e-08
-2.84631e-08
5.50984e-07
-2.93055e-08
2.28507e-08
-2.77341e-08
5.88586e-07
1.62367e-08
-2.79218e-08
6.17111e-07
8.41554e-09
-2.78555e-08
6.36279e-07
6.2104e-16
-2.78009e-08
6.45911e-07
-8.41554e-09
-2.78009e-08
6.45911e-07
-1.62367e-08
-2.78555e-08
6.36279e-07
-2.28507e-08
-2.79217e-08
6.17111e-07
-2.77341e-08
-2.77341e-08
5.88586e-07
-2.84631e-08
5.50984e-07
-2.93055e-08
2.84631e-08
5.09799e-07
-3.11786e-08
-3.11786e-08
2.25431e-08
5.50984e-07
-2.93055e-08
1.5928e-08
5.82321e-07
-3.04955e-08
8.18875e-09
6.03387e-07
-3.04842e-08
1.67924e-17
6.13979e-07
-3.05785e-08
-8.18874e-09
6.13979e-07
-3.05785e-08
-1.5928e-08
6.03387e-07
-3.04842e-08
-2.25431e-08
5.82321e-07
-3.04955e-08
-2.84631e-08
5.50984e-07
-2.93055e-08
5.09799e-07
-3.11786e-08
-3.11787e-08
1.09093e-08
1.09093e-08
5.10844e-07
-1.14323e-08
-1.14323e-08
8.91323e-09
1.10368e-08
5.53017e-07
-1.10737e-08
6.40992e-09
1.14211e-08
5.85123e-07
-1.17205e-08
3.33405e-09
1.16187e-08
6.06751e-07
-1.19061e-08
5.46697e-15
1.17117e-08
6.17634e-07
-1.20327e-08
-3.33404e-09
1.17117e-08
6.17634e-07
-1.20327e-08
-6.4099e-09
1.16187e-08
6.06751e-07
-1.19061e-08
-8.91322e-09
1.14211e-08
5.85123e-07
-1.17205e-08
-1.09093e-08
1.10368e-08
5.53017e-07
-1.10737e-08
1.09093e-08
5.10845e-07
-1.14323e-08
-1.14323e-08
1.10368e-08
8.91323e-09
5.53017e-07
-1.10737e-08
9.43667e-09
9.43666e-09
5.91787e-07
6.87533e-09
9.80851e-09
6.21284e-07
3.61703e-09
1.00048e-08
6.41151e-07
1.05356e-15
1.00941e-08
6.51145e-07
-3.61703e-09
1.00941e-08
6.51145e-07
-6.87532e-09
1.00048e-08
6.41151e-07
-9.43665e-09
9.8085e-09
6.21284e-07
-1.10368e-08
9.43666e-09
5.91787e-07
8.91322e-09
5.53017e-07
-1.10737e-08
1.14211e-08
6.40992e-09
5.85123e-07
-1.17205e-08
9.80851e-09
6.87532e-09
6.21284e-07
7.16074e-09
7.16074e-09
6.48794e-07
3.77091e-09
7.3122e-09
6.6732e-07
3.30483e-15
7.37907e-09
6.76638e-07
-3.77091e-09
7.37907e-09
6.76638e-07
-7.16074e-09
7.3122e-09
6.6732e-07
-9.8085e-09
7.16074e-09
6.48794e-07
-1.14211e-08
6.87532e-09
6.21284e-07
6.4099e-09
5.85123e-07
-1.17205e-08
1.16187e-08
3.33406e-09
6.06751e-07
-1.19061e-08
1.00048e-08
3.61702e-09
6.41151e-07
7.3122e-09
3.77091e-09
6.6732e-07
3.85311e-09
3.85311e-09
6.84941e-07
2.33428e-15
3.88883e-09
6.93805e-07
-3.8531e-09
3.88883e-09
6.93805e-07
-7.31219e-09
3.85311e-09
6.84941e-07
-1.00047e-08
3.77091e-09
6.6732e-07
-1.16187e-08
3.61702e-09
6.41151e-07
3.33404e-09
6.06751e-07
-1.19061e-08
1.17117e-08
8.02937e-15
6.17634e-07
-1.20327e-08
1.00941e-08
-3.95728e-15
6.51145e-07
7.37907e-09
2.18494e-15
6.76638e-07
3.88883e-09
3.48559e-15
6.93805e-07
3.07332e-15
4.39516e-15
7.02439e-07
-3.88882e-09
4.24835e-15
7.02439e-07
-7.37906e-09
4.6908e-15
6.93805e-07
-1.00941e-08
6.1896e-15
6.76638e-07
-1.17117e-08
5.92991e-16
6.51145e-07
5.53412e-15
6.17634e-07
-1.20327e-08
1.17117e-08
-3.33403e-09
6.17634e-07
-1.20327e-08
1.00941e-08
-3.61703e-09
6.51145e-07
7.37907e-09
-3.77091e-09
6.76638e-07
3.88883e-09
-3.8531e-09
6.93805e-07
2.52338e-15
-3.88882e-09
7.02439e-07
-3.88882e-09
-3.88882e-09
7.02439e-07
-7.37906e-09
-3.8531e-09
6.93805e-07
-1.00941e-08
-3.77091e-09
6.76638e-07
-1.17117e-08
-3.61703e-09
6.51145e-07
-3.33403e-09
6.17634e-07
-1.20327e-08
1.16187e-08
-6.40989e-09
6.06751e-07
-1.19061e-08
1.00048e-08
-6.87533e-09
6.41151e-07
7.3122e-09
-7.16074e-09
6.6732e-07
3.85311e-09
-7.31219e-09
6.84941e-07
3.68245e-15
-7.37906e-09
6.93805e-07
-3.8531e-09
-7.37906e-09
6.93805e-07
-7.31219e-09
-7.31219e-09
6.84941e-07
-1.00047e-08
-7.16074e-09
6.6732e-07
-1.16187e-08
-6.87532e-09
6.41151e-07
-6.4099e-09
6.06751e-07
-1.19061e-08
1.14211e-08
-8.91322e-09
5.85123e-07
-1.17205e-08
9.80849e-09
-9.43665e-09
6.21284e-07
7.16074e-09
-9.8085e-09
6.48794e-07
3.77091e-09
-1.00047e-08
6.6732e-07
5.08987e-15
-1.00941e-08
6.76638e-07
-3.7709e-09
-1.00941e-08
6.76638e-07
-7.16073e-09
-1.00048e-08
6.6732e-07
-9.80849e-09
-9.8085e-09
6.48794e-07
-1.14211e-08
-9.43664e-09
6.21284e-07
-8.91323e-09
5.85123e-07
-1.17205e-08
1.10368e-08
-1.09093e-08
5.53017e-07
-1.10737e-08
9.43665e-09
-1.10368e-08
5.91787e-07
6.87531e-09
-1.14211e-08
6.21284e-07
3.61702e-09
-1.16187e-08
6.41151e-07
-2.32645e-15
-1.17117e-08
6.51145e-07
-3.61703e-09
-1.17117e-08
6.51145e-07
-6.87533e-09
-1.16187e-08
6.41151e-07
-9.43666e-09
-1.14211e-08
6.21284e-07
-1.10368e-08
-1.10368e-08
5.91787e-07
-1.09093e-08
5.53017e-07
-1.10737e-08
1.09093e-08
5.10845e-07
-1.14323e-08
-1.14323e-08
8.91323e-09
5.53017e-07
-1.10737e-08
6.4099e-09
5.85123e-07
-1.17205e-08
3.33404e-09
6.06751e-07
-1.19061e-08
1.90733e-15
6.17634e-07
-1.20327e-08
-3.33404e-09
6.17634e-07
-1.20327e-08
-6.40991e-09
6.06751e-07
-1.19061e-08
-8.91325e-09
5.85123e-07
-1.17205e-08
-1.09093e-08
5.53017e-07
-1.10737e-08
5.10845e-07
-1.14323e-08
-1.14323e-08
3.99576e-09
3.99575e-09
5.10907e-07
-4.02684e-09
-4.02685e-09
3.37043e-09
4.21074e-09
5.53488e-07
-4.0566e-09
2.46897e-09
4.47231e-09
5.85942e-07
-4.38913e-09
1.29845e-09
4.62335e-09
6.07826e-07
-4.52843e-09
3.6975e-15
4.69643e-09
6.18844e-07
-4.60826e-09
-1.29844e-09
4.69642e-09
6.18844e-07
-4.60825e-09
-2.46894e-09
4.62334e-09
6.07826e-07
-4.52843e-09
-3.3704e-09
4.47231e-09
5.85942e-07
-4.38913e-09
-3.99575e-09
4.21076e-09
5.53488e-07
-4.05661e-09
3.99577e-09
5.10907e-07
-4.02684e-09
-4.02685e-09
4.21075e-09
3.37042e-09
5.53488e-07
-4.05661e-09
3.70888e-09
3.70888e-09
5.9279e-07
2.75572e-09
3.95976e-09
6.2275e-07
1.46617e-09
4.10894e-09
6.42955e-07
1.2738e-15
4.18073e-09
6.53127e-07
-1.46617e-09
4.18073e-09
6.53127e-07
-2.75573e-09
4.10893e-09
6.42955e-07
-3.70888e-09
3.95975e-09
6.2275e-07
-4.21073e-09
3.70888e-09
5.9279e-07
3.37043e-09
5.53488e-07
-4.05659e-09
4.47231e-09
2.46896e-09
5.85942e-07
-4.38913e-09
3.95976e-09
2.75572e-09
6.2275e-07
2.95038e-09
2.95038e-09
6.50813e-07
1.57215e-09
3.06775e-09
6.69739e-07
3.93223e-15
3.12367e-09
6.79267e-07
-1.57215e-09
3.12367e-09
6.79267e-07
-2.95038e-09
3.06775e-09
6.69739e-07
-3.95976e-09
2.95038e-09
6.50813e-07
-4.47232e-09
2.75572e-09
6.2275e-07
2.46896e-09
5.85942e-07
-4.38913e-09
4.62334e-09
1.29845e-09
6.07826e-07
-4.52843e-09
4.10893e-09
1.46617e-09
6.42955e-07
3.06775e-09
1.57215e-09
6.69739e-07
1.63672e-09
1.63672e-09
6.87803e-07
4.02696e-15
1.66733e-09
6.96898e-07
-1.63672e-09
1.66733e-09
6.96898e-07
-3.06774e-09
1.63672e-09
6.87803e-07
-4.10893e-09
1.57215e-09
6.69739e-07
-4.62334e-09
1.46617e-09
6.42955e-07
1.29845e-09
6.07826e-07
-4.52843e-09
4.69642e-09
1.60492e-15
6.18844e-07
-4.60826e-09
4.18073e-09
-1.18198e-15
6.53127e-07
3.12367e-09
3.30421e-15
6.79267e-07
1.66733e-09
3.92297e-15
6.96898e-07
4.39219e-15
5.52972e-15
7.05774e-07
-1.66732e-09
4.30748e-15
7.05774e-07
-3.12366e-09
3.90593e-15
6.96898e-07
-4.18073e-09
5.00675e-15
6.79267e-07
-4.69642e-09
6.154e-16
6.53127e-07
5.5872e-15
6.18844e-07
-4.60826e-09
4.69642e-09
-1.29845e-09
6.18844e-07
-4.60825e-09
4.18073e-09
-1.46618e-09
6.53127e-07
3.12367e-09
-1.57215e-09
6.79267e-07
1.66733e-09
-1.63672e-09
6.96898e-07
3.43212e-15
-1.66732e-09
7.05774e-07
-1.66732e-09
-1.66732e-09
7.05774e-07
-3.12366e-09
-1.63671e-09
6.96898e-07
-4.18073e-09
-1.57214e-09
6.79267e-07
-4.69642e-09
-1.46617e-09
6.53127e-07
-1.29844e-09
6.18844e-07
-4.60826e-09
4.62334e-09
-2.46895e-09
6.07826e-07
-4.52843e-09
4.10893e-09
-2.75573e-09
6.42955e-07
3.06775e-09
-2.95038e-09
6.69739e-07
1.63672e-09
-3.06775e-09
6.87803e-07
3.06043e-15
-3.12366e-09
6.96898e-07
-1.63671e-09
-3.12367e-09
6.96898e-07
-3.06774e-09
-3.06774e-09
6.87803e-07
-4.10893e-09
-2.95037e-09
6.69739e-07
-4.62334e-09
-2.75572e-09
6.42955e-07
-2.46895e-09
6.07826e-07
-4.52842e-09
4.47232e-09
-3.37041e-09
5.85942e-07
-4.38913e-09
3.95975e-09
-3.70887e-09
6.2275e-07
2.95038e-09
-3.95976e-09
6.50813e-07
1.57215e-09
-4.10894e-09
6.69739e-07
3.82697e-15
-4.18073e-09
6.79267e-07
-1.57214e-09
-4.18073e-09
6.79267e-07
-2.95037e-09
-4.10893e-09
6.69739e-07
-3.95976e-09
-3.95975e-09
6.50813e-07
-4.47233e-09
-3.70887e-09
6.2275e-07
-3.37044e-09
5.85942e-07
-4.38912e-09
4.21076e-09
-3.99576e-09
5.53488e-07
-4.05661e-09
3.70888e-09
-4.21073e-09
5.9279e-07
2.75573e-09
-4.47232e-09
6.2275e-07
1.46617e-09
-4.62334e-09
6.42955e-07
-5.39366e-16
-4.69642e-09
6.53127e-07
-1.46618e-09
-4.69642e-09
6.53127e-07
-2.75573e-09
-4.62334e-09
6.42955e-07
-3.70888e-09
-4.47231e-09
6.2275e-07
-4.21075e-09
-4.21074e-09
5.9279e-07
-3.99578e-09
5.53488e-07
-4.0566e-09
3.99575e-09
5.10907e-07
-4.02684e-09
-4.02685e-09
3.37042e-09
5.53488e-07
-4.0566e-09
2.46896e-09
5.85942e-07
-4.38913e-09
1.29845e-09
6.07826e-07
-4.52843e-09
5.1998e-15
6.18844e-07
-4.60826e-09
-1.29844e-09
6.18844e-07
-4.60826e-09
-2.46895e-09
6.07826e-07
-4.52843e-09
-3.37041e-09
5.85942e-07
-4.38912e-09
-3.99576e-09
5.53488e-07
-4.05659e-09
5.10907e-07
-4.02686e-09
-4.02686e-09
1.40911e-09
1.4091e-09
5.1086e-07
-1.38554e-09
-1.38554e-09
1.21566e-09
1.53478e-09
5.53583e-07
-1.43692e-09
9.03094e-10
1.66786e-09
5.86168e-07
-1.58197e-09
4.79133e-10
1.74947e-09
6.08154e-07
-1.65321e-09
6.19083e-16
1.78994e-09
6.19226e-07
-1.69254e-09
-4.79132e-10
1.78994e-09
6.19226e-07
-1.69254e-09
-9.03087e-10
1.74946e-09
6.08154e-07
-1.6532e-09
-1.21564e-09
1.66784e-09
5.86168e-07
-1.58196e-09
-1.4091e-09
1.53479e-09
5.53583e-07
-1.43692e-09
1.4091e-09
5.1086e-07
-1.38553e-09
-1.38554e-09
1.53479e-09
1.21565e-09
5.53583e-07
-1.43693e-09
1.38352e-09
1.38351e-09
5.93093e-07
1.04474e-09
1.51383e-09
6.23243e-07
5.6115e-10
1.5961e-09
6.43592e-07
1.97825e-17
1.6368e-09
6.53841e-07
-5.61152e-10
1.6368e-09
6.53841e-07
-1.04474e-09
1.5961e-09
6.43592e-07
-1.38352e-09
1.51382e-09
6.23243e-07
-1.53478e-09
1.38351e-09
5.93093e-07
1.21563e-09
5.53583e-07
-1.43691e-09
1.66786e-09
9.03088e-10
5.86168e-07
-1.58197e-09
1.51383e-09
1.04473e-09
6.23243e-07
1.14738e-09
1.14738e-09
6.51546e-07
6.17545e-10
1.21312e-09
6.70652e-07
4.86725e-15
1.24545e-09
6.80276e-07
-6.17534e-10
1.24545e-09
6.80276e-07
-1.14737e-09
1.21311e-09
6.70652e-07
-1.51383e-09
1.14737e-09
6.51546e-07
-1.66785e-09
1.04473e-09
6.23243e-07
9.03077e-10
5.86168e-07
-1.58197e-09
1.74946e-09
4.79134e-10
6.08154e-07
-1.65321e-09
1.5961e-09
5.61147e-10
6.43592e-07
1.21312e-09
6.17545e-10
6.70652e-07
6.54012e-10
6.54015e-10
6.88922e-07
5.08884e-15
6.71904e-10
6.98125e-07
-6.54001e-10
6.71902e-10
6.98125e-07
-1.2131e-09
6.5401e-10
6.88922e-07
-1.59609e-09
6.1754e-10
6.70652e-07
-1.74946e-09
5.61144e-10
6.43592e-07
4.79131e-10
6.08154e-07
-1.65321e-09
1.78994e-09
9.86438e-16
6.19226e-07
-1.69254e-09
1.6368e-09
1.15425e-15
6.53841e-07
1.24545e-09
6.0434e-15
6.80276e-07
6.71901e-10
6.14656e-15
6.98125e-07
4.29177e-15
6.2325e-15
7.07118e-07
-6.71892e-10
4.46374e-15
7.07118e-07
-1.24544e-09
2.87518e-15
6.98125e-07
-1.63679e-09
3.38928e-15
6.80276e-07
-1.78993e-09
-7.70347e-16
6.53841e-07
4.73342e-15
6.19226e-07
-1.69254e-09
1.78994e-09
-4.79131e-10
6.19226e-07
-1.69254e-09
1.6368e-09
-5.61145e-10
6.53841e-07
1.24545e-09
-6.17531e-10
6.80276e-07
6.719e-10
-6.54001e-10
6.98125e-07
2.88865e-15
-6.71891e-10
7.07118e-07
-6.71894e-10
-6.71894e-10
7.07118e-07
-1.24544e-09
-6.54005e-10
6.98125e-07
-1.6368e-09
-6.17532e-10
6.80276e-07
-1.78993e-09
-5.61145e-10
6.53841e-07
-4.79122e-10
6.19226e-07
-1.69254e-09
1.74946e-09
-9.03079e-10
6.08154e-07
-1.6532e-09
1.59609e-09
-1.04473e-09
6.43592e-07
1.21311e-09
-1.14737e-09
6.70652e-07
6.54007e-10
-1.21311e-09
6.88922e-07
1.51026e-15
-1.24544e-09
6.98125e-07
-6.54004e-10
-1.24545e-09
6.98125e-07
-1.21311e-09
-1.21311e-09
6.88922e-07
-1.59609e-09
-1.14737e-09
6.70652e-07
-1.74946e-09
-1.04473e-09
6.43592e-07
-9.03075e-10
6.08154e-07
-1.6532e-09
1.66784e-09
-1.21563e-09
5.86168e-07
-1.58196e-09
1.51382e-09
-1.38351e-09
6.23243e-07
1.14737e-09
-1.51382e-09
6.51546e-07
6.17538e-10
-1.5961e-09
6.70652e-07
1.81821e-15
-1.6368e-09
6.80276e-07
-6.17533e-10
-1.6368e-09
6.80276e-07
-1.14737e-09
-1.5961e-09
6.70652e-07
-1.51382e-09
-1.51382e-09
6.51546e-07
-1.66785e-09
-1.3835e-09
6.23243e-07
-1.21564e-09
5.86168e-07
-1.58196e-09
1.53479e-09
-1.4091e-09
5.53583e-07
-1.43692e-09
1.38351e-09
-1.53476e-09
5.93093e-07
1.04473e-09
-1.66785e-09
6.23243e-07
5.61145e-10
-1.74946e-09
6.43592e-07
-1.32638e-15
-1.78993e-09
6.53841e-07
-5.61147e-10
-1.78993e-09
6.53841e-07
-1.04474e-09
-1.74946e-09
6.43592e-07
-1.38351e-09
-1.66785e-09
6.23243e-07
-1.53478e-09
-1.53476e-09
5.93093e-07
-1.40911e-09
5.53583e-07
-1.43691e-09
1.40909e-09
5.1086e-07
-1.38553e-09
-1.38554e-09
1.21564e-09
5.53583e-07
-1.4369e-09
9.0308e-10
5.86168e-07
-1.58197e-09
4.79128e-10
6.08154e-07
-1.6532e-09
5.13772e-15
6.19226e-07
-1.69254e-09
-4.7912e-10
6.19226e-07
-1.69255e-09
-9.03075e-10
6.08154e-07
-1.6532e-09
-1.21564e-09
5.86168e-07
-1.58196e-09
-1.4091e-09
5.53583e-07
-1.43691e-09
5.1086e-07
-1.38554e-09
-1.38554e-09
5.01985e-10
5.01981e-10
5.1083e-07
-4.87328e-10
-4.87337e-10
4.38185e-10
5.56545e-10
5.53603e-07
-5.12528e-10
3.27898e-10
6.12843e-10
5.86235e-07
-5.6934e-10
1.74792e-10
6.48657e-10
6.08258e-07
-5.99272e-10
-2.15645e-15
6.66687e-10
6.1935e-07
-6.15633e-10
-1.74796e-10
6.66682e-10
6.1935e-07
-6.1563e-10
-3.27896e-10
6.48645e-10
6.08258e-07
-5.99267e-10
-4.38183e-10
6.12843e-10
5.86235e-07
-5.69338e-10
-5.01983e-10
5.56556e-10
5.53603e-07
-5.12536e-10
5.0198e-10
5.1083e-07
-4.87324e-10
-4.87336e-10
5.56563e-10
4.38173e-10
5.53603e-07
-5.12537e-10
5.08646e-10
5.08637e-10
5.93189e-07
3.87885e-10
5.65214e-10
6.23411e-07
2.09579e-10
6.0225e-10
6.43817e-07
-1.69391e-15
6.20904e-10
6.54097e-07
-2.09584e-10
6.20902e-10
6.54097e-07
-3.87896e-10
6.02243e-10
6.43817e-07
-5.0866e-10
5.65211e-10
6.23411e-07
-5.56577e-10
5.08645e-10
5.93189e-07
4.38158e-10
5.53603e-07
-5.12536e-10
6.12849e-10
3.27887e-10
5.86235e-07
-5.69345e-10
5.65213e-10
3.87881e-10
6.23411e-07
4.33274e-10
4.33277e-10
6.5181e-07
2.34786e-10
4.63437e-10
6.70989e-07
4.17429e-15
4.78573e-10
6.80653e-07
-2.34778e-10
4.78571e-10
6.80653e-07
-4.33268e-10
4.63431e-10
6.70989e-07
-5.6521e-10
4.33273e-10
6.5181e-07
-6.12844e-10
3.87884e-10
6.23411e-07
3.27884e-10
5.86235e-07
-5.69352e-10
6.48646e-10
1.74788e-10
6.08258e-07
-5.9927e-10
6.02238e-10
2.09577e-10
6.43817e-07
4.63427e-10
2.34788e-10
6.70989e-07
2.51695e-10
2.517e-10
6.89345e-07
5.24911e-15
2.60174e-10
6.98596e-07
-2.51685e-10
2.60172e-10
6.98596e-07
-4.63418e-10
2.51695e-10
6.89345e-07
-6.02231e-10
2.34784e-10
6.70989e-07
-6.48636e-10
2.09576e-10
6.43817e-07
1.74793e-10
6.08258e-07
-5.99267e-10
6.66683e-10
-2.53644e-15
6.1935e-07
-6.15634e-10
6.20897e-10
7.20786e-16
6.54097e-07
4.78566e-10
5.72675e-15
6.80653e-07
2.60171e-10
6.54969e-15
6.98596e-07
4.98333e-15
6.49968e-15
7.07638e-07
-2.60162e-10
5.2752e-15
7.07638e-07
-4.7856e-10
4.14131e-15
6.98596e-07
-6.20893e-10
4.31909e-15
6.80653e-07
-6.6668e-10
-5.20088e-16
6.54097e-07
4.35612e-15
6.1935e-07
-6.15633e-10
6.66684e-10
-1.74794e-10
6.1935e-07
-6.15633e-10
6.20896e-10
-2.09575e-10
6.54097e-07
4.78565e-10
-2.34775e-10
6.80653e-07
2.6017e-10
-2.51687e-10
6.98596e-07
4.25867e-15
-2.60161e-10
7.07638e-07
-2.60162e-10
-2.60162e-10
7.07638e-07
-4.78559e-10
-2.51687e-10
6.98596e-07
-6.20893e-10
-2.34775e-10
6.80653e-07
-6.66679e-10
-2.09578e-10
6.54097e-07
-1.74782e-10
6.1935e-07
-6.15635e-10
6.48635e-10
-3.27889e-10
6.08258e-07
-5.99263e-10
6.0223e-10
-3.87882e-10
6.43817e-07
4.63421e-10
-4.33267e-10
6.70989e-07
2.51691e-10
-4.63425e-10
6.89345e-07
2.47126e-15
-4.78562e-10
6.98596e-07
-2.51686e-10
-4.78562e-10
6.98596e-07
-4.63419e-10
-4.63423e-10
6.89345e-07
-6.02231e-10
-4.33265e-10
6.70989e-07
-6.48633e-10
-3.87888e-10
6.43817e-07
-3.27872e-10
6.08258e-07
-5.99265e-10
6.12826e-10
-4.38162e-10
5.86235e-07
-5.69337e-10
5.65198e-10
-5.08648e-10
6.23411e-07
4.33265e-10
-5.65211e-10
6.5181e-07
2.3478e-10
-6.02242e-10
6.70989e-07
1.63407e-15
-6.20897e-10
6.80653e-07
-2.34777e-10
-6.20897e-10
6.80653e-07
-4.33266e-10
-6.02237e-10
6.70989e-07
-5.65205e-10
-5.65204e-10
6.5181e-07
-6.12841e-10
-5.08645e-10
6.23411e-07
-4.38158e-10
5.86235e-07
-5.69338e-10
5.56579e-10
-5.01984e-10
5.53603e-07
-5.12538e-10
5.08651e-10
-5.5655e-10
5.93189e-07
3.87887e-10
-6.12842e-10
6.23411e-07
2.09577e-10
-6.48645e-10
6.43817e-07
-2.12903e-15
-6.66682e-10
6.54097e-07
-2.09583e-10
-6.66681e-10
6.54097e-07
-3.87893e-10
-6.48639e-10
6.43817e-07
-5.08654e-10
-6.12836e-10
6.23411e-07
-5.56576e-10
-5.56553e-10
5.93189e-07
-5.01984e-10
5.53603e-07
-5.1253e-10
5.01987e-10
5.1083e-07
-4.87329e-10
-4.87337e-10
4.38176e-10
5.53603e-07
-5.12521e-10
3.27891e-10
5.86235e-07
-5.69342e-10
1.74791e-10
6.08258e-07
-5.99268e-10
2.2205e-15
6.1935e-07
-6.15636e-10
-1.74789e-10
6.1935e-07
-6.15634e-10
-3.27887e-10
6.08258e-07
-5.99264e-10
-4.38171e-10
5.86235e-07
-5.69336e-10
-5.01986e-10
5.53603e-07
-5.12521e-10
5.1083e-07
-4.87334e-10
-4.87334e-10
1.80565e-10
1.80574e-10
5.10817e-07
-1.74049e-10
-1.74049e-10
1.58689e-10
2.02294e-10
5.53607e-07
-1.84529e-10
1.19257e-10
2.24499e-10
5.86256e-07
-2.06049e-10
6.37509e-11
2.38906e-10
6.08292e-07
-2.1778e-10
-5.52482e-15
2.46229e-10
6.19392e-07
-2.24168e-10
-6.37627e-11
2.46227e-10
6.19392e-07
-2.24166e-10
-1.19272e-10
2.38902e-10
6.08292e-07
-2.17773e-10
-1.58705e-10
2.24488e-10
5.86256e-07
-2.06041e-10
-1.80575e-10
2.02271e-10
5.53607e-07
-1.84516e-10
1.80558e-10
5.10817e-07
-1.74046e-10
-1.74048e-10
2.02289e-10
1.58702e-10
5.53607e-07
-1.84528e-10
1.86395e-10
1.86391e-10
5.9322e-07
1.42988e-10
2.09078e-10
6.2347e-07
7.75379e-11
2.24241e-10
6.43897e-07
-1.00458e-15
2.31964e-10
6.54188e-07
-7.75413e-11
2.31962e-10
6.54188e-07
-1.42992e-10
2.24237e-10
6.43897e-07
-1.86399e-10
2.09069e-10
6.2347e-07
-2.02305e-10
1.86382e-10
5.9322e-07
1.58677e-10
5.53607e-07
-1.84533e-10
2.24515e-10
1.19255e-10
5.86256e-07
-2.0605e-10
2.09088e-10
1.42989e-10
6.2347e-07
1.61419e-10
1.61416e-10
6.51905e-07
8.78501e-11
1.7393e-10
6.71113e-07
5.32379e-15
1.80289e-10
6.80793e-07
-8.78385e-11
1.80286e-10
6.80793e-07
-1.61404e-10
1.73924e-10
6.71113e-07
-2.09069e-10
1.61408e-10
6.51905e-07
-2.24488e-10
1.42978e-10
6.2347e-07
1.19251e-10
5.86256e-07
-2.06047e-10
2.3891e-10
6.37461e-11
6.08292e-07
-2.17781e-10
2.24243e-10
7.75391e-11
6.43897e-07
1.73929e-10
8.78505e-11
6.71113e-07
9.49214e-11
9.49233e-11
6.89503e-07
6.12442e-15
9.85138e-11
6.98772e-07
-9.49087e-11
9.85115e-11
6.98772e-07
-1.73915e-10
9.4917e-11
6.89503e-07
-2.24229e-10
8.78433e-11
6.71113e-07
-2.38895e-10
7.75311e-11
6.43897e-07
6.37515e-11
6.08292e-07
-2.17776e-10
2.46228e-10
-5.87277e-15
6.19392e-07
-2.2417e-10
2.31962e-10
1.42988e-15
6.54188e-07
1.80286e-10
6.6072e-15
6.80793e-07
9.85117e-11
7.59196e-15
6.98772e-07
5.41429e-15
6.80009e-15
7.07835e-07
-9.85011e-11
5.00021e-15
7.07835e-07
-1.80276e-10
2.7793e-15
6.98772e-07
-2.31954e-10
1.74634e-15
6.80793e-07
-2.46223e-10
-3.63897e-15
6.54188e-07
3.67285e-15
6.19392e-07
-2.2417e-10
2.46225e-10
-6.37619e-11
6.19392e-07
-2.24165e-10
2.31959e-10
-7.75366e-11
6.54188e-07
1.80283e-10
-8.78372e-11
6.80793e-07
9.85091e-11
-9.49083e-11
6.98772e-07
3.53679e-15
-9.85008e-11
7.07835e-07
-9.85027e-11
-9.8502e-11
7.07835e-07
-1.80278e-10
-9.4912e-11
6.98772e-07
-2.31956e-10
-8.78412e-11
6.80793e-07
-2.46223e-10
-7.75402e-11
6.54188e-07
-6.37419e-11
6.19392e-07
-2.24172e-10
2.389e-10
-1.19271e-10
6.08292e-07
-2.17773e-10
2.24235e-10
-1.42987e-10
6.43897e-07
1.73922e-10
-1.61403e-10
6.71113e-07
9.49158e-11
-1.73916e-10
6.89503e-07
1.75595e-15
-1.80277e-10
6.98772e-07
-9.49126e-11
-1.80278e-10
6.98772e-07
-1.73919e-10
-1.73919e-10
6.89503e-07
-2.24231e-10
-1.61409e-10
6.71113e-07
-2.38895e-10
-1.42991e-10
6.43897e-07
-1.19241e-10
6.08292e-07
-2.17776e-10
2.24494e-10
-1.58703e-10
5.86256e-07
-2.06045e-10
2.09073e-10
-1.86394e-10
6.2347e-07
1.61411e-10
-2.09069e-10
6.51905e-07
8.78451e-11
-2.2423e-10
6.71113e-07
2.42586e-15
-2.31954e-10
6.80793e-07
-8.784e-11
-2.31955e-10
6.80793e-07
-1.61406e-10
-2.24233e-10
6.71113e-07
-2.0907e-10
-2.09075e-10
6.51905e-07
-2.24499e-10
-1.86392e-10
6.2347e-07
-1.58679e-10
5.86256e-07
-2.06044e-10
2.02287e-10
-1.8057e-10
5.53607e-07
-1.84531e-10
1.86382e-10
-2.0228e-10
5.9322e-07
1.42979e-10
-2.2449e-10
6.2347e-07
7.75328e-11
-2.38899e-10
6.43897e-07
-2.02083e-15
-2.46223e-10
6.54188e-07
-7.75378e-11
-2.46222e-10
6.54188e-07
-1.42988e-10
-2.38898e-10
6.43897e-07
-1.86386e-10
-2.24507e-10
6.2347e-07
-2.02286e-10
-2.0229e-10
5.9322e-07
-1.80561e-10
5.53607e-07
-1.84517e-10
1.80552e-10
5.10817e-07
-1.74036e-10
-1.74048e-10
1.58676e-10
5.53607e-07
-1.84519e-10
1.19248e-10
5.86256e-07
-2.06047e-10
6.37476e-11
6.08292e-07
-2.1778e-10
2.87406e-15
6.19392e-07
-2.24173e-10
-6.37413e-11
6.19392e-07
-2.24172e-10
-1.19241e-10
6.08292e-07
-2.17778e-10
-1.58683e-10
5.86256e-07
-2.06048e-10
-1.80563e-10
5.53607e-07
-1.84519e-10
5.10817e-07
-1.74045e-10
-1.7404e-10
6.52298e-11
6.5236e-11
5.10812e-07
-6.26296e-11
-6.26291e-11
5.75558e-11
7.35674e-11
5.53608e-07
-6.67345e-11
4.33659e-11
8.20559e-11
5.86263e-07
-7.47682e-11
2.32209e-11
8.76287e-11
6.08304e-07
-7.923e-11
-4.03703e-15
9.04746e-11
6.19406e-07
-8.16555e-11
-2.32292e-11
9.04717e-11
6.19406e-07
-8.16522e-11
-4.33779e-11
8.76283e-11
6.08304e-07
-7.92255e-11
-5.75769e-11
8.20647e-11
5.86263e-07
-7.47648e-11
-6.52436e-11
7.3559e-11
5.53608e-07
-6.67315e-11
6.52238e-11
5.10812e-07
-6.26257e-11
-6.26335e-11
7.35571e-11
5.75627e-11
5.53608e-07
-6.67269e-11
6.81212e-11
6.81235e-11
5.93231e-07
5.24531e-11
7.6888e-11
6.23491e-07
2.85096e-11
8.28192e-11
6.43926e-07
-7.24046e-16
8.58585e-11
6.54222e-07
-2.8512e-11
8.58565e-11
6.54222e-07
-5.24574e-11
8.28186e-11
6.43926e-07
-6.81231e-11
7.68896e-11
6.23491e-07
-7.35677e-11
6.8119e-11
5.93231e-07
5.75447e-11
5.53608e-07
-6.6732e-11
8.20554e-11
4.33658e-11
5.86263e-07
-7.47627e-11
7.68866e-11
5.24559e-11
6.23491e-07
5.96286e-11
5.96319e-11
6.51939e-07
3.25442e-11
6.45691e-11
6.71158e-07
2.86254e-15
6.70965e-11
6.80844e-07
-3.25392e-11
6.7095e-11
6.80844e-07
-5.96244e-11
6.45676e-11
6.71158e-07
-7.68829e-11
5.96314e-11
6.51939e-07
-8.20545e-11
5.24523e-11
6.23491e-07
4.33596e-11
5.86263e-07
-7.47701e-11
8.7625e-11
2.32198e-11
6.08304e-07
-7.9227e-11
8.2817e-11
2.8511e-11
6.43926e-07
6.45678e-11
3.25469e-11
6.71158e-07
3.53513e-11
3.53524e-11
6.89561e-07
4.33026e-15
3.67884e-11
6.98838e-07
-3.53435e-11
3.67874e-11
6.98838e-07
-6.45606e-11
3.53507e-11
6.89561e-07
-8.28108e-11