/*--------------------------------*- C++ -*----------------------------------*\
| =========                 |                                                 |
| \\      /  F ield         | OpenFOAM: The Open Source CFD Toolbox           |
|  \\    /   O peration     | Version:  2412                                  |
|   \\  /    A nd           | Website:  www.openfoam.com                      |
|    \\/     M anipulation  |                                                 |
\*---------------------------------------------------------------------------*/
FoamFile
{
    version     2.0;
    format      ascii;
    arch        "LSB;label=32;scalar=64";
    class       volVectorField;
    location    "0.7";
    object      U;
}
// * * * * * * * * * * * * * * * * * * * * * * * * * * * * * * * * * * * * * //

dimensions      [0 1 -1 0 0 0 0];

internalField   nonuniform List<vector> 
15000
(
(0.000527028 0.000527028 0.0103713)
(0.000365778 0.000457654 0.0103298)
(0.000249943 0.000447037 0.0103012)
(0.000146878 0.000431294 0.0102828)
(4.8196e-05 0.00042453 0.0102739)
(-4.81961e-05 0.00042453 0.0102739)
(-0.000146878 0.000431294 0.0102828)
(-0.000249943 0.000447036 0.0103012)
(-0.000365778 0.000457654 0.0103298)
(-0.000527028 0.000527028 0.0103713)
(0.000457654 0.000365778 0.0103298)
(0.000339356 0.000339356 0.0102886)
(0.000236291 0.000325195 0.0102593)
(0.000139242 0.000315642 0.0102407)
(4.58844e-05 0.000311229 0.0102317)
(-4.58843e-05 0.000311229 0.0102317)
(-0.000139242 0.000315642 0.0102407)
(-0.000236291 0.000325195 0.0102593)
(-0.000339356 0.000339356 0.0102886)
(-0.000457653 0.000365778 0.0103298)
(0.000447037 0.000249943 0.0103012)
(0.000325195 0.000236291 0.0102593)
(0.00022521 0.00022521 0.0102303)
(0.00013205 0.000217272 0.0102122)
(4.34729e-05 0.000213386 0.0102036)
(-4.34729e-05 0.000213386 0.0102036)
(-0.00013205 0.000217272 0.0102122)
(-0.00022521 0.00022521 0.0102303)
(-0.000325195 0.000236291 0.0102593)
(-0.000447036 0.000249943 0.0103012)
(0.000431294 0.000146878 0.0102828)
(0.000315642 0.000139242 0.0102407)
(0.000217272 0.00013205 0.0102122)
(0.000127023 0.000127023 0.0101947)
(4.17819e-05 0.000124537 0.0101864)
(-4.17819e-05 0.000124537 0.0101864)
(-0.000127023 0.000127023 0.0101947)
(-0.000217272 0.00013205 0.0102122)
(-0.000315642 0.000139242 0.0102407)
(-0.000431294 0.000146878 0.0102828)
(0.00042453 4.8196e-05 0.0102739)
(0.000311229 4.58844e-05 0.0102317)
(0.000213386 4.34729e-05 0.0102036)
(0.000124537 4.17819e-05 0.0101864)
(4.09398e-05 4.09398e-05 0.0101783)
(-4.09398e-05 4.09399e-05 0.0101783)
(-0.000124537 4.17819e-05 0.0101864)
(-0.000213386 4.34729e-05 0.0102036)
(-0.000311229 4.58844e-05 0.0102317)
(-0.00042453 4.81961e-05 0.0102739)
(0.00042453 -4.81961e-05 0.0102739)
(0.000311229 -4.58844e-05 0.0102317)
(0.000213386 -4.34729e-05 0.0102036)
(0.000124537 -4.17819e-05 0.0101864)
(4.09399e-05 -4.09398e-05 0.0101783)
(-4.09398e-05 -4.09398e-05 0.0101783)
(-0.000124537 -4.17818e-05 0.0101864)
(-0.000213386 -4.34728e-05 0.0102036)
(-0.000311229 -4.58843e-05 0.0102317)
(-0.00042453 -4.81961e-05 0.0102739)
(0.000431294 -0.000146878 0.0102828)
(0.000315642 -0.000139242 0.0102407)
(0.000217272 -0.00013205 0.0102122)
(0.000127023 -0.000127023 0.0101947)
(4.17819e-05 -0.000124537 0.0101864)
(-4.17818e-05 -0.000124537 0.0101864)
(-0.000127023 -0.000127023 0.0101947)
(-0.000217272 -0.00013205 0.0102122)
(-0.000315642 -0.000139242 0.0102407)
(-0.000431294 -0.000146878 0.0102828)
(0.000447037 -0.000249943 0.0103012)
(0.000325195 -0.000236291 0.0102593)
(0.00022521 -0.00022521 0.0102303)
(0.00013205 -0.000217272 0.0102122)
(4.34729e-05 -0.000213386 0.0102036)
(-4.34728e-05 -0.000213386 0.0102036)
(-0.00013205 -0.000217272 0.0102122)
(-0.00022521 -0.00022521 0.0102303)
(-0.000325195 -0.000236291 0.0102593)
(-0.000447037 -0.000249943 0.0103012)
(0.000457654 -0.000365778 0.0103298)
(0.000339356 -0.000339356 0.0102886)
(0.000236291 -0.000325195 0.0102593)
(0.000139242 -0.000315641 0.0102407)
(4.58844e-05 -0.000311229 0.0102317)
(-4.58843e-05 -0.000311229 0.0102317)
(-0.000139242 -0.000315642 0.0102407)
(-0.000236291 -0.000325195 0.0102593)
(-0.000339356 -0.000339356 0.0102886)
(-0.000457654 -0.000365778 0.0103298)
(0.000527028 -0.000527028 0.0103713)
(0.000365778 -0.000457654 0.0103298)
(0.000249943 -0.000447036 0.0103012)
(0.000146878 -0.000431294 0.0102828)
(4.81961e-05 -0.00042453 0.0102739)
(-4.81961e-05 -0.00042453 0.0102739)
(-0.000146878 -0.000431294 0.0102828)
(-0.000249943 -0.000447036 0.0103012)
(-0.000365777 -0.000457654 0.0103298)
(-0.000527028 -0.000527028 0.0103713)
(0.000182589 0.00018259 0.0108713)
(0.000140882 0.000183161 0.0108091)
(0.000104187 0.000195125 0.0107649)
(6.43696e-05 0.000199449 0.0107359)
(2.16133e-05 0.000202038 0.0107217)
(-2.16133e-05 0.000202038 0.0107217)
(-6.43694e-05 0.000199449 0.0107359)
(-0.000104187 0.000195125 0.0107649)
(-0.000140882 0.000183161 0.0108091)
(-0.000182589 0.00018259 0.0108713)
(0.000183161 0.000140882 0.0108091)
(0.000150923 0.000150923 0.0107441)
(0.000113404 0.000159535 0.0106964)
(7.02091e-05 0.000164667 0.0106654)
(2.37284e-05 0.000167307 0.0106502)
(-2.37284e-05 0.000167307 0.0106502)
(-7.02091e-05 0.000164667 0.0106654)
(-0.000113404 0.000159535 0.0106964)
(-0.000150923 0.000150923 0.0107441)
(-0.00018316 0.000140882 0.0108091)
(0.000195125 0.000104186 0.0107649)
(0.000159535 0.000113404 0.0106964)
(0.00011952 0.00011952 0.0106471)
(7.37704e-05 0.000123082 0.0106156)
(2.49112e-05 0.00012477 0.0106002)
(-2.49112e-05 0.00012477 0.0106002)
(-7.37705e-05 0.000123082 0.0106156)
(-0.00011952 0.00011952 0.0106471)
(-0.000159535 0.000113404 0.0106964)
(-0.000195125 0.000104186 0.0107649)
(0.000199449 6.43695e-05 0.0107359)
(0.000164667 7.02091e-05 0.0106654)
(0.000123081 7.37704e-05 0.0106156)
(7.58187e-05 7.58187e-05 0.0105839)
(2.55841e-05 7.67728e-05 0.0105686)
(-2.55841e-05 7.67728e-05 0.0105686)
(-7.58187e-05 7.58187e-05 0.0105839)
(-0.000123081 7.37705e-05 0.0106156)
(-0.000164667 7.02091e-05 0.0106654)
(-0.000199449 6.43694e-05 0.0107359)
(0.000202038 2.16133e-05 0.0107217)
(0.000167307 2.37283e-05 0.0106502)
(0.000124769 2.49111e-05 0.0106002)
(7.67728e-05 2.55841e-05 0.0105686)
(2.58936e-05 2.58936e-05 0.0105533)
(-2.58936e-05 2.58936e-05 0.0105533)
(-7.67728e-05 2.55841e-05 0.0105686)
(-0.000124769 2.49112e-05 0.0106002)
(-0.000167307 2.37284e-05 0.0106502)
(-0.000202038 2.16133e-05 0.0107217)
(0.000202038 -2.16133e-05 0.0107217)
(0.000167307 -2.37284e-05 0.0106502)
(0.000124769 -2.49112e-05 0.0106002)
(7.67728e-05 -2.55841e-05 0.0105686)
(2.58936e-05 -2.58936e-05 0.0105533)
(-2.58936e-05 -2.58936e-05 0.0105533)
(-7.67728e-05 -2.55841e-05 0.0105686)
(-0.000124769 -2.49111e-05 0.0106002)
(-0.000167307 -2.37284e-05 0.0106502)
(-0.000202038 -2.16134e-05 0.0107217)
(0.000199449 -6.43695e-05 0.0107359)
(0.000164667 -7.02091e-05 0.0106654)
(0.000123081 -7.37704e-05 0.0106156)
(7.58187e-05 -7.58187e-05 0.0105839)
(2.55842e-05 -7.67728e-05 0.0105686)
(-2.55841e-05 -7.67728e-05 0.0105686)
(-7.58187e-05 -7.58187e-05 0.0105839)
(-0.000123082 -7.37704e-05 0.0106156)
(-0.000164667 -7.02092e-05 0.0106654)
(-0.000199449 -6.43695e-05 0.0107359)
(0.000195125 -0.000104187 0.0107649)
(0.000159535 -0.000113404 0.0106964)
(0.00011952 -0.00011952 0.0106471)
(7.37705e-05 -0.000123081 0.0106156)
(2.49112e-05 -0.000124769 0.0106002)
(-2.49111e-05 -0.000124769 0.0106002)
(-7.37704e-05 -0.000123081 0.0106156)
(-0.00011952 -0.00011952 0.0106471)
(-0.000159535 -0.000113404 0.0106964)
(-0.000195125 -0.000104186 0.0107649)
(0.000183161 -0.000140882 0.0108091)
(0.000150923 -0.000150923 0.0107441)
(0.000113404 -0.000159535 0.0106964)
(7.02091e-05 -0.000164667 0.0106654)
(2.37284e-05 -0.000167307 0.0106502)
(-2.37284e-05 -0.000167307 0.0106502)
(-7.02092e-05 -0.000164667 0.0106654)
(-0.000113404 -0.000159535 0.0106964)
(-0.000150922 -0.000150922 0.0107441)
(-0.00018316 -0.000140882 0.0108091)
(0.00018259 -0.00018259 0.0108713)
(0.000140882 -0.000183161 0.0108091)
(0.000104186 -0.000195125 0.0107649)
(6.43694e-05 -0.000199449 0.0107359)
(2.16133e-05 -0.000202038 0.0107217)
(-2.16134e-05 -0.000202038 0.0107217)
(-6.43696e-05 -0.000199449 0.0107359)
(-0.000104186 -0.000195125 0.0107649)
(-0.000140882 -0.00018316 0.0108091)
(-0.00018259 -0.00018259 0.0108713)
(6.96006e-05 6.96008e-05 0.010867)
(5.49601e-05 7.18426e-05 0.0108481)
(4.17648e-05 7.80861e-05 0.0108333)
(2.61428e-05 8.12073e-05 0.0108228)
(8.84254e-06 8.297e-05 0.0108176)
(-8.84248e-06 8.297e-05 0.0108176)
(-2.61427e-05 8.12073e-05 0.0108228)
(-4.17648e-05 7.80861e-05 0.0108333)
(-5.49602e-05 7.18425e-05 0.0108481)
(-6.96006e-05 6.96006e-05 0.010867)
(7.18426e-05 5.49602e-05 0.0108481)
(6.14921e-05 6.14922e-05 0.0108246)
(4.76537e-05 6.70802e-05 0.0108058)
(3.00756e-05 7.07939e-05 0.0107927)
(1.02647e-05 7.274e-05 0.010786)
(-1.02647e-05 7.27399e-05 0.010786)
(-3.00756e-05 7.07938e-05 0.0107927)
(-4.76538e-05 6.70801e-05 0.0108058)
(-6.14921e-05 6.14922e-05 0.0108246)
(-7.18425e-05 5.49602e-05 0.0108481)
(7.80861e-05 4.17648e-05 0.0108333)
(6.70801e-05 4.76538e-05 0.0108058)
(5.2094e-05 5.20941e-05 0.0107839)
(3.28842e-05 5.50021e-05 0.0107689)
(1.12285e-05 5.64607e-05 0.0107613)
(-1.12285e-05 5.64607e-05 0.0107613)
(-3.28842e-05 5.50021e-05 0.0107689)
(-5.2094e-05 5.20941e-05 0.0107839)
(-6.70801e-05 4.76539e-05 0.0108058)
(-7.80861e-05 4.17649e-05 0.0108333)
(8.12073e-05 2.61428e-05 0.0108228)
(7.07939e-05 3.00755e-05 0.0107927)
(5.5002e-05 3.28842e-05 0.0107689)
(3.47204e-05 3.47204e-05 0.0107526)
(1.18582e-05 3.56376e-05 0.0107444)
(-1.18581e-05 3.56376e-05 0.0107444)
(-3.47204e-05 3.47204e-05 0.0107526)
(-5.5002e-05 3.28842e-05 0.0107689)
(-7.07938e-05 3.00755e-05 0.0107927)
(-8.12073e-05 2.61428e-05 0.0108228)
(8.297e-05 8.84255e-06 0.0108176)
(7.274e-05 1.02647e-05 0.010786)
(5.64607e-05 1.12285e-05 0.0107613)
(3.56376e-05 1.18582e-05 0.0107444)
(1.21711e-05 1.21711e-05 0.0107358)
(-1.2171e-05 1.21711e-05 0.0107358)
(-3.56376e-05 1.18582e-05 0.0107444)
(-5.64607e-05 1.12285e-05 0.0107613)
(-7.27399e-05 1.02647e-05 0.010786)
(-8.297e-05 8.84257e-06 0.0108176)
(8.29701e-05 -8.84245e-06 0.0108176)
(7.27399e-05 -1.02647e-05 0.010786)
(5.64607e-05 -1.12285e-05 0.0107613)
(3.56376e-05 -1.18581e-05 0.0107444)
(1.21711e-05 -1.2171e-05 0.0107358)
(-1.21711e-05 -1.2171e-05 0.0107358)
(-3.56376e-05 -1.18581e-05 0.0107444)
(-5.64607e-05 -1.12285e-05 0.0107613)
(-7.27399e-05 -1.02647e-05 0.010786)
(-8.297e-05 -8.84251e-06 0.0108176)
(8.12073e-05 -2.61428e-05 0.0108228)
(7.07938e-05 -3.00756e-05 0.0107927)
(5.50021e-05 -3.28842e-05 0.0107689)
(3.47204e-05 -3.47203e-05 0.0107526)
(1.18582e-05 -3.56376e-05 0.0107444)
(-1.18581e-05 -3.56376e-05 0.0107444)
(-3.47203e-05 -3.47203e-05 0.0107526)
(-5.50021e-05 -3.28842e-05 0.0107689)
(-7.07939e-05 -3.00756e-05 0.0107927)
(-8.12073e-05 -2.61428e-05 0.0108228)
(7.80861e-05 -4.17649e-05 0.0108333)
(6.70801e-05 -4.76538e-05 0.0108058)
(5.20941e-05 -5.2094e-05 0.0107839)
(3.28842e-05 -5.5002e-05 0.0107689)
(1.12285e-05 -5.64607e-05 0.0107613)
(-1.12285e-05 -5.64607e-05 0.0107613)
(-3.28842e-05 -5.50021e-05 0.0107689)
(-5.20941e-05 -5.20941e-05 0.0107839)
(-6.70802e-05 -4.76539e-05 0.0108058)
(-7.8086e-05 -4.17647e-05 0.0108333)
(7.18426e-05 -5.49603e-05 0.0108481)
(6.14922e-05 -6.14921e-05 0.0108246)
(4.76539e-05 -6.70801e-05 0.0108058)
(3.00756e-05 -7.07939e-05 0.0107927)
(1.02647e-05 -7.27399e-05 0.010786)
(-1.02647e-05 -7.27399e-05 0.010786)
(-3.00756e-05 -7.07939e-05 0.0107927)
(-4.76539e-05 -6.70801e-05 0.0108058)
(-6.14919e-05 -6.1492e-05 0.0108246)
(-7.18424e-05 -5.49601e-05 0.0108481)
(6.96007e-05 -6.96007e-05 0.010867)
(5.49602e-05 -7.18426e-05 0.0108481)
(4.17648e-05 -7.80861e-05 0.0108333)
(2.61428e-05 -8.12073e-05 0.0108228)
(8.84254e-06 -8.297e-05 0.0108176)
(-8.84251e-06 -8.297e-05 0.0108176)
(-2.61428e-05 -8.12072e-05 0.0108228)
(-4.17647e-05 -7.8086e-05 0.0108333)
(-5.49601e-05 -7.18425e-05 0.0108481)
(-6.96007e-05 -6.96008e-05 0.010867)
(2.51783e-05 2.51785e-05 0.0108697)
(2.04438e-05 2.70376e-05 0.0108629)
(1.59666e-05 3.00501e-05 0.0108572)
(1.01278e-05 3.1733e-05 0.010853)
(3.45069e-06 3.26498e-05 0.0108509)
(-3.45064e-06 3.26498e-05 0.0108509)
(-1.01277e-05 3.1733e-05 0.010853)
(-1.59665e-05 3.00501e-05 0.0108572)
(-2.04439e-05 2.70375e-05 0.0108629)
(-2.51784e-05 2.51782e-05 0.0108697)
(2.70376e-05 2.04439e-05 0.0108629)
(2.38706e-05 2.38707e-05 0.0108538)
(1.89646e-05 2.67513e-05 0.010846)
(1.21481e-05 2.87211e-05 0.0108405)
(4.17691e-06 2.97541e-05 0.0108377)
(-4.1769e-06 2.97541e-05 0.0108377)
(-1.21482e-05 2.87211e-05 0.0108405)
(-1.89646e-05 2.67512e-05 0.010846)
(-2.38705e-05 2.38705e-05 0.0108538)
(-2.70374e-05 2.04438e-05 0.0108629)
(3.00502e-05 1.59666e-05 0.0108572)
(2.67512e-05 1.89646e-05 0.010846)
(2.13159e-05 2.1316e-05 0.0108367)
(1.36679e-05 2.29115e-05 0.0108301)
(4.70361e-06 2.37263e-05 0.0108267)
(-4.70356e-06 2.37264e-05 0.0108267)
(-1.36678e-05 2.29115e-05 0.0108301)
(-2.13159e-05 2.1316e-05 0.0108367)
(-2.67512e-05 1.89647e-05 0.010846)
(-3.00501e-05 1.59666e-05 0.0108572)
(3.1733e-05 1.01278e-05 0.010853)
(2.87211e-05 1.21481e-05 0.0108405)
(2.29115e-05 1.36679e-05 0.0108301)
(1.47057e-05 1.47057e-05 0.0108227)
(5.06414e-06 1.52356e-05 0.0108189)
(-5.06409e-06 1.52356e-05 0.0108189)
(-1.47056e-05 1.47057e-05 0.0108227)
(-2.29114e-05 1.36679e-05 0.0108301)
(-2.87211e-05 1.21482e-05 0.0108405)
(-3.1733e-05 1.01278e-05 0.010853)
(3.26498e-05 3.45068e-06 0.0108509)
(2.9754e-05 4.17688e-06 0.0108377)
(2.37263e-05 4.7036e-06 0.0108267)
(1.52356e-05 5.06414e-06 0.0108189)
(5.24765e-06 5.24766e-06 0.0108148)
(-5.2476e-06 5.24766e-06 0.0108148)
(-1.52355e-05 5.06415e-06 0.0108189)
(-2.37263e-05 4.70362e-06 0.0108267)
(-2.97541e-05 4.17692e-06 0.0108377)
(-3.26498e-05 3.45074e-06 0.0108509)
(3.26498e-05 -3.45066e-06 0.0108509)
(2.97541e-05 -4.1769e-06 0.0108377)
(2.37263e-05 -4.70356e-06 0.0108267)
(1.52356e-05 -5.0641e-06 0.0108189)
(5.24765e-06 -5.2476e-06 0.0108148)
(-5.24761e-06 -5.2476e-06 0.0108148)
(-1.52355e-05 -5.0641e-06 0.0108189)
(-2.37263e-05 -4.70356e-06 0.0108267)
(-2.9754e-05 -4.17691e-06 0.0108377)
(-3.26498e-05 -3.45068e-06 0.0108509)
(3.17331e-05 -1.01277e-05 0.010853)
(2.87211e-05 -1.21482e-05 0.0108405)
(2.29115e-05 -1.36678e-05 0.0108301)
(1.47057e-05 -1.47056e-05 0.0108227)
(5.06415e-06 -1.52355e-05 0.0108189)
(-5.06411e-06 -1.52355e-05 0.0108189)
(-1.47056e-05 -1.47056e-05 0.0108227)
(-2.29115e-05 -1.36678e-05 0.0108301)
(-2.87212e-05 -1.21483e-05 0.0108405)
(-3.1733e-05 -1.01277e-05 0.010853)
(3.00501e-05 -1.59665e-05 0.0108572)
(2.67512e-05 -1.89647e-05 0.010846)
(2.1316e-05 -2.13159e-05 0.0108367)
(1.36679e-05 -2.29114e-05 0.0108301)
(4.70361e-06 -2.37263e-05 0.0108267)
(-4.70357e-06 -2.37263e-05 0.0108267)
(-1.36678e-05 -2.29115e-05 0.0108301)
(-2.1316e-05 -2.1316e-05 0.0108367)
(-2.67513e-05 -1.89648e-05 0.010846)
(-3.005e-05 -1.59665e-05 0.0108572)
(2.70375e-05 -2.04439e-05 0.0108629)
(2.38705e-05 -2.38705e-05 0.0108538)
(1.89648e-05 -2.67512e-05 0.010846)
(1.21481e-05 -2.87211e-05 0.0108405)
(4.1769e-06 -2.9754e-05 0.0108377)
(-4.17691e-06 -2.9754e-05 0.0108377)
(-1.21482e-05 -2.87211e-05 0.0108405)
(-1.89648e-05 -2.67513e-05 0.010846)
(-2.38704e-05 -2.38704e-05 0.0108538)
(-2.70373e-05 -2.04438e-05 0.0108629)
(2.51784e-05 -2.51785e-05 0.0108697)
(2.04439e-05 -2.70375e-05 0.0108629)
(1.59666e-05 -3.00501e-05 0.0108572)
(1.01277e-05 -3.1733e-05 0.010853)
(3.4507e-06 -3.26498e-05 0.0108509)
(-3.45064e-06 -3.26498e-05 0.0108509)
(-1.01277e-05 -3.1733e-05 0.010853)
(-1.59666e-05 -3.00501e-05 0.0108572)
(-2.04438e-05 -2.70373e-05 0.0108629)
(-2.51784e-05 -2.51784e-05 0.0108697)
(8.7988e-06 8.79889e-06 0.0108695)
(7.28227e-06 9.7524e-06 0.0108673)
(5.79931e-06 1.10493e-05 0.0108651)
(3.71582e-06 1.18269e-05 0.0108635)
(1.27338e-06 1.22472e-05 0.0108627)
(-1.27338e-06 1.22472e-05 0.0108627)
(-3.71575e-06 1.18269e-05 0.0108635)
(-5.79921e-06 1.10494e-05 0.0108651)
(-7.28231e-06 9.75244e-06 0.0108673)
(-8.79886e-06 8.79884e-06 0.0108695)
(9.75239e-06 7.28234e-06 0.0108673)
(8.81583e-06 8.8159e-06 0.0108638)
(7.14351e-06 1.01226e-05 0.0108607)
(4.63245e-06 1.10395e-05 0.0108585)
(1.60264e-06 1.15229e-05 0.0108573)
(-1.60264e-06 1.15229e-05 0.0108573)
(-4.63241e-06 1.10395e-05 0.0108585)
(-7.14356e-06 1.01227e-05 0.0108607)
(-8.81587e-06 8.81587e-06 0.0108638)
(-9.75233e-06 7.28233e-06 0.0108673)
(1.10493e-05 5.79931e-06 0.0108651)
(1.01226e-05 7.14355e-06 0.0108607)
(8.23859e-06 8.23863e-06 0.0108569)
(5.35243e-06 9.0024e-06 0.0108541)
(1.8542e-06 9.39794e-06 0.0108527)
(-1.85414e-06 9.39796e-06 0.0108527)
(-5.35236e-06 9.00244e-06 0.0108541)
(-8.23853e-06 8.23865e-06 0.0108569)
(-1.01226e-05 7.14366e-06 0.0108607)
(-1.10494e-05 5.79936e-06 0.0108651)
(1.18269e-05 3.71579e-06 0.0108635)
(1.10394e-05 4.63246e-06 0.0108585)
(9.00236e-06 5.35245e-06 0.0108541)
(5.85945e-06 5.85948e-06 0.010851)
(2.03186e-06 6.12225e-06 0.0108493)
(-2.03179e-06 6.12224e-06 0.0108493)
(-5.85941e-06 5.85947e-06 0.010851)
(-9.00234e-06 5.35243e-06 0.0108541)
(-1.10395e-05 4.63241e-06 0.0108585)
(-1.18269e-05 3.71581e-06 0.0108635)
(1.22472e-05 1.27337e-06 0.0108627)
(1.15229e-05 1.60264e-06 0.0108573)
(9.39791e-06 1.85421e-06 0.0108527)
(6.12222e-06 2.03187e-06 0.0108493)
(2.12372e-06 2.12373e-06 0.0108475)
(-2.12366e-06 2.12372e-06 0.0108475)
(-6.12218e-06 2.03185e-06 0.0108493)
(-9.39789e-06 1.8542e-06 0.0108527)
(-1.15229e-05 1.60264e-06 0.0108573)
(-1.22472e-05 1.27342e-06 0.0108627)
(1.22472e-05 -1.27336e-06 0.0108627)
(1.15229e-05 -1.60262e-06 0.0108573)
(9.39793e-06 -1.85413e-06 0.0108527)
(6.12222e-06 -2.03179e-06 0.0108493)
(2.12371e-06 -2.12365e-06 0.0108475)
(-2.12368e-06 -2.12367e-06 0.0108475)
(-6.12218e-06 -2.03181e-06 0.0108493)
(-9.39789e-06 -1.85416e-06 0.0108527)
(-1.15228e-05 -1.60265e-06 0.0108573)
(-1.22472e-05 -1.27337e-06 0.0108627)
(1.18269e-05 -3.71577e-06 0.0108635)
(1.10395e-05 -4.63241e-06 0.0108585)
(9.00239e-06 -5.35236e-06 0.0108541)
(5.85946e-06 -5.8594e-06 0.010851)
(2.03184e-06 -6.12218e-06 0.0108493)
(-2.03182e-06 -6.12218e-06 0.0108493)
(-5.85942e-06 -5.85942e-06 0.010851)
(-9.00238e-06 -5.35239e-06 0.0108541)
(-1.10395e-05 -4.63248e-06 0.0108585)
(-1.18269e-05 -3.71579e-06 0.0108635)
(1.10495e-05 -5.79928e-06 0.0108651)
(1.01227e-05 -7.14362e-06 0.0108607)
(8.23862e-06 -8.23852e-06 0.0108569)
(5.3524e-06 -9.00234e-06 0.0108541)
(1.85418e-06 -9.3979e-06 0.0108527)
(-1.85416e-06 -9.3979e-06 0.0108527)
(-5.35239e-06 -9.00239e-06 0.0108541)
(-8.23864e-06 -8.23864e-06 0.0108569)
(-1.01226e-05 -7.14373e-06 0.0108607)
(-1.10493e-05 -5.79929e-06 0.0108651)
(9.75243e-06 -7.28237e-06 0.0108673)
(8.81593e-06 -8.81595e-06 0.0108638)
(7.14367e-06 -1.01227e-05 0.0108607)
(4.63238e-06 -1.10395e-05 0.0108585)
(1.60263e-06 -1.15229e-05 0.0108573)
(-1.60265e-06 -1.15228e-05 0.0108573)
(-4.63246e-06 -1.10394e-05 0.0108585)
(-7.14373e-06 -1.01226e-05 0.0108607)
(-8.81582e-06 -8.81587e-06 0.0108638)
(-9.75226e-06 -7.2823e-06 0.0108673)
(8.79883e-06 -8.79887e-06 0.0108695)
(7.28237e-06 -9.7524e-06 0.0108673)
(5.79938e-06 -1.10494e-05 0.0108651)
(3.71581e-06 -1.18269e-05 0.0108635)
(1.27342e-06 -1.22472e-05 0.0108627)
(-1.27336e-06 -1.22472e-05 0.0108627)
(-3.71579e-06 -1.18269e-05 0.0108635)
(-5.79937e-06 -1.10493e-05 0.0108651)
(-7.2823e-06 -9.75229e-06 0.0108673)
(-8.79884e-06 -8.79882e-06 0.0108695)
(3.1211e-06 3.12121e-06 0.0108686)
(2.60747e-06 3.51547e-06 0.010868)
(2.09787e-06 4.02475e-06 0.0108673)
(1.35117e-06 4.3422e-06 0.0108667)
(4.64491e-07 4.51395e-06 0.0108664)
(-4.64516e-07 4.51395e-06 0.0108664)
(-1.3511e-06 4.34221e-06 0.0108667)
(-2.09773e-06 4.02475e-06 0.0108673)
(-2.60751e-06 3.51553e-06 0.010868)
(-3.12118e-06 3.12123e-06 0.0108686)
(3.51545e-06 2.60751e-06 0.010868)
(3.22173e-06 3.22177e-06 0.0108668)
(2.64181e-06 3.75439e-06 0.0108657)
(1.72619e-06 4.13571e-06 0.0108648)
(5.99522e-07 4.33829e-06 0.0108644)
(-5.99545e-07 4.33831e-06 0.0108644)
(-1.72621e-06 4.13576e-06 0.0108648)
(-2.64181e-06 3.7544e-06 0.0108657)
(-3.2216e-06 3.22174e-06 0.0108668)
(-3.51536e-06 2.60756e-06 0.010868)
(4.02474e-06 2.09785e-06 0.0108673)
(3.75435e-06 2.64183e-06 0.0108657)
(3.09825e-06 3.09827e-06 0.0108642)
(2.03085e-06 3.42374e-06 0.0108631)
(7.06745e-07 3.59432e-06 0.0108625)
(-7.06691e-07 3.59434e-06 0.0108625)
(-2.03079e-06 3.4238e-06 0.0108631)
(-3.09818e-06 3.09835e-06 0.0108642)
(-3.75432e-06 2.64193e-06 0.0108657)
(-4.0248e-06 2.09779e-06 0.0108673)
(4.34221e-06 1.35116e-06 0.0108667)
(4.13571e-06 1.72623e-06 0.0108648)
(3.42371e-06 2.03087e-06 0.0108631)
(2.25052e-06 2.25054e-06 0.0108618)
(7.84298e-07 2.36581e-06 0.0108611)
(-7.8423e-07 2.36581e-06 0.0108611)
(-2.25047e-06 2.25054e-06 0.0108618)
(-3.42369e-06 2.03085e-06 0.0108631)
(-4.13572e-06 1.72619e-06 0.0108648)
(-4.34222e-06 1.35111e-06 0.0108667)
(4.51397e-06 4.64503e-07 0.0108664)
(4.33828e-06 5.9954e-07 0.0108644)
(3.59429e-06 7.06753e-07 0.0108625)
(2.36579e-06 7.84303e-07 0.0108611)
(8.24924e-07 8.24932e-07 0.0108604)
(-8.24862e-07 8.24927e-07 0.0108604)
(-2.36574e-06 7.84293e-07 0.0108611)
(-3.59425e-06 7.06749e-07 0.0108625)
(-4.33827e-06 5.99536e-07 0.0108644)
(-4.51396e-06 4.64544e-07 0.0108664)
(4.51397e-06 -4.64535e-07 0.0108664)
(4.3383e-06 -5.99529e-07 0.0108644)
(3.59431e-06 -7.06678e-07 0.0108625)
(2.36579e-06 -7.84221e-07 0.0108611)
(8.24922e-07 -8.24853e-07 0.0108604)
(-8.24869e-07 -8.24862e-07 0.0108604)
(-2.36575e-06 -7.84243e-07 0.0108611)
(-3.59427e-06 -7.06697e-07 0.0108625)
(-4.33827e-06 -5.9954e-07 0.0108644)
(-4.51396e-06 -4.64489e-07 0.0108664)
(4.34226e-06 -1.35114e-06 0.0108667)
(4.13578e-06 -1.72619e-06 0.0108648)
(3.42376e-06 -2.03077e-06 0.0108631)
(2.25051e-06 -2.25045e-06 0.0108618)
(7.84283e-07 -2.36574e-06 0.0108611)
(-7.84253e-07 -2.36575e-06 0.0108611)
(-2.25048e-06 -2.25048e-06 0.0108618)
(-3.42372e-06 -2.0308e-06 0.0108631)
(-4.13571e-06 -1.72623e-06 0.0108648)
(-4.34221e-06 -1.35111e-06 0.0108667)
(4.02483e-06 -2.09773e-06 0.0108673)
(3.75445e-06 -2.64188e-06 0.0108657)
(3.0983e-06 -3.09821e-06 0.0108642)
(2.03082e-06 -3.4237e-06 0.0108631)
(7.06726e-07 -3.59428e-06 0.0108625)
(-7.06708e-07 -3.59429e-06 0.0108625)
(-2.0308e-06 -3.42374e-06 0.0108631)
(-3.09829e-06 -3.0983e-06 0.0108642)
(-3.75438e-06 -2.64204e-06 0.0108657)
(-4.02473e-06 -2.0978e-06 0.0108673)
(3.51546e-06 -2.60747e-06 0.010868)
(3.22174e-06 -3.22176e-06 0.0108668)
(2.64194e-06 -3.75442e-06 0.0108657)
(1.72617e-06 -4.13575e-06 0.0108648)
(5.99522e-07 -4.33828e-06 0.0108644)
(-5.9955e-07 -4.33829e-06 0.0108644)
(-1.72621e-06 -4.13573e-06 0.0108648)
(-2.64201e-06 -3.7544e-06 0.0108657)
(-3.22166e-06 -3.22171e-06 0.0108668)
(-3.51527e-06 -2.60751e-06 0.010868)
(3.12112e-06 -3.12117e-06 0.0108686)
(2.60749e-06 -3.5154e-06 0.010868)
(2.09788e-06 -4.0248e-06 0.0108673)
(1.35117e-06 -4.34222e-06 0.0108667)
(4.64534e-07 -4.51397e-06 0.0108664)
(-4.64503e-07 -4.51396e-06 0.0108664)
(-1.35111e-06 -4.34219e-06 0.0108667)
(-2.09784e-06 -4.02476e-06 0.0108673)
(-2.60749e-06 -3.5153e-06 0.010868)
(-3.12109e-06 -3.12114e-06 0.0108686)
(1.11997e-06 1.11989e-06 0.0108681)
(9.40598e-07 1.27315e-06 0.0108682)
(7.61241e-07 1.46656e-06 0.0108679)
(4.91744e-07 1.58963e-06 0.0108677)
(1.69338e-07 1.6563e-06 0.0108676)
(-1.69409e-07 1.6563e-06 0.0108676)
(-4.91751e-07 1.58965e-06 0.0108677)
(-7.61168e-07 1.46666e-06 0.0108679)
(-9.4054e-07 1.27329e-06 0.0108682)
(-1.1199e-06 1.12012e-06 0.0108681)
(1.27313e-06 9.40587e-07 0.0108682)
(1.17613e-06 1.17611e-06 0.0108678)
(9.71399e-07 1.38288e-06 0.0108673)
(6.3769e-07 1.5328e-06 0.010867)
(2.21999e-07 1.61287e-06 0.0108669)
(-2.2201e-07 1.61291e-06 0.0108669)
(-6.37661e-07 1.5329e-06 0.010867)
(-9.71359e-07 1.38302e-06 0.0108673)
(-1.17604e-06 1.17627e-06 0.0108678)
(-1.27319e-06 9.40654e-07 0.0108682)
(1.46648e-06 7.61243e-07 0.0108679)
(1.38288e-06 9.71396e-07 0.0108673)
(1.15116e-06 1.15114e-06 0.0108668)
(7.58847e-07 1.28114e-06 0.0108664)
(2.64862e-07 1.34985e-06 0.0108662)
(-2.64795e-07 1.34987e-06 0.0108662)
(-7.58743e-07 1.2812e-06 0.0108664)
(-1.151e-06 1.15119e-06 0.0108668)
(-1.38291e-06 9.71488e-07 0.0108673)
(-1.46666e-06 7.61178e-07 0.0108679)
(1.58958e-06 4.91781e-07 0.0108677)
(1.5328e-06 6.37743e-07 0.010867)
(1.28115e-06 7.58865e-07 0.0108664)
(8.4757e-07 8.47581e-07 0.0108659)
(2.9636e-07 8.94563e-07 0.0108656)
(-2.96284e-07 8.94564e-07 0.0108656)
(-8.47502e-07 8.47578e-07 0.0108659)
(-1.28107e-06 7.58809e-07 0.0108664)
(-1.53282e-06 6.3762e-07 0.010867)
(-1.58968e-06 4.91754e-07 0.0108677)
(1.6563e-06 1.69355e-07 0.0108676)
(1.61286e-06 2.22027e-07 0.0108669)
(1.34983e-06 2.64873e-07 0.0108662)
(8.94545e-07 2.96369e-07 0.0108656)
(3.13012e-07 3.13023e-07 0.0108653)
(-3.12945e-07 3.13013e-07 0.0108653)
(-8.94494e-07 2.96346e-07 0.0108656)
(-1.34979e-06 2.64844e-07 0.0108662)
(-1.61285e-06 2.21981e-07 0.0108669)
(-1.65631e-06 1.69406e-07 0.0108676)
(1.65629e-06 -1.69425e-07 0.0108676)
(1.6129e-06 -2.22006e-07 0.0108669)
(1.34986e-06 -2.64788e-07 0.0108662)
(8.94552e-07 -2.96277e-07 0.0108656)
(3.13003e-07 -3.1294e-07 0.0108653)
(-3.1296e-07 -3.12951e-07 0.0108653)
(-8.94503e-07 -2.96312e-07 0.0108656)
(-1.3498e-06 -2.64823e-07 0.0108662)
(-1.61285e-06 -2.2203e-07 0.0108669)
(-1.6563e-06 -1.69363e-07 0.0108676)
(1.58965e-06 -4.91721e-07 0.0108677)
(1.5329e-06 -6.37639e-07 0.010867)
(1.28118e-06 -7.58743e-07 0.0108664)
(8.47558e-07 -8.47515e-07 0.0108659)
(2.96338e-07 -8.94498e-07 0.0108656)
(-2.96317e-07 -8.94499e-07 0.0108656)
(-8.4753e-07 -8.47528e-07 0.0108659)
(-1.28113e-06 -7.58793e-07 0.0108664)
(-1.53281e-06 -6.37721e-07 0.010867)
(-1.58962e-06 -4.9173e-07 0.0108677)
(1.46667e-06 -7.61105e-07 0.0108679)
(1.38298e-06 -9.71378e-07 0.0108673)
(1.15114e-06 -1.15105e-06 0.0108668)
(7.58796e-07 -1.28111e-06 0.0108664)
(2.64852e-07 -1.34979e-06 0.0108662)
(-2.64824e-07 -1.3498e-06 0.0108662)
(-7.58798e-07 -1.28114e-06 0.0108664)
(-1.15116e-06 -1.15117e-06 0.0108668)
(-1.3829e-06 -9.71551e-07 0.0108673)
(-1.46654e-06 -7.61195e-07 0.0108679)
(1.27335e-06 -9.40652e-07 0.0108682)
(1.17618e-06 -1.1762e-06 0.0108678)
(9.7145e-07 -1.38296e-06 0.0108673)
(6.37649e-07 -1.53282e-06 0.010867)
(2.22011e-07 -1.61284e-06 0.0108669)
(-2.22038e-07 -1.61285e-06 0.0108669)
(-6.3773e-07 -1.5328e-06 0.010867)
(-9.7154e-07 -1.38288e-06 0.0108673)
(-1.17604e-06 -1.17605e-06 0.0108678)
(-1.27304e-06 -9.40625e-07 0.0108682)
(1.12005e-06 -1.12003e-06 0.0108681)
(9.40648e-07 -1.27322e-06 0.0108682)
(7.61303e-07 -1.46665e-06 0.0108679)
(4.9181e-07 -1.58965e-06 0.0108677)
(1.69412e-07 -1.65631e-06 0.0108676)
(-1.69373e-07 -1.6563e-06 0.0108676)
(-4.91716e-07 -1.5896e-06 0.0108677)
(-7.612e-07 -1.46653e-06 0.0108679)
(-9.40642e-07 -1.27304e-06 0.0108682)
(-1.11995e-06 -1.11994e-06 0.0108681)
(4.04093e-07 4.03981e-07 0.010868)
(3.40371e-07 4.6194e-07 0.0108682)
(2.76408e-07 5.34253e-07 0.0108681)
(1.78873e-07 5.80811e-07 0.0108681)
(6.16513e-08 6.06063e-07 0.010868)
(-6.17012e-08 6.06062e-07 0.010868)
(-1.78851e-07 5.80791e-07 0.0108681)
(-2.76323e-07 5.34239e-07 0.0108681)
(-3.40329e-07 4.6203e-07 0.0108682)
(-4.04029e-07 4.04184e-07 0.010868)
(4.61918e-07 3.40331e-07 0.0108682)
(4.28806e-07 4.28767e-07 0.0108681)
(3.5578e-07 5.07112e-07 0.0108679)
(2.34239e-07 5.64361e-07 0.0108678)
(8.16664e-08 5.95057e-07 0.0108678)
(-8.16771e-08 5.95083e-07 0.0108678)
(-2.3424e-07 5.64413e-07 0.0108678)
(-3.55732e-07 5.07156e-07 0.0108679)
(-4.2871e-07 4.28842e-07 0.0108681)
(-4.61932e-07 3.4041e-07 0.0108682)
(5.34202e-07 2.76422e-07 0.0108681)
(5.07137e-07 3.55779e-07 0.0108679)
(4.24484e-07 4.24476e-07 0.0108677)
(2.80843e-07 4.74625e-07 0.0108676)
(9.82153e-08 5.01293e-07 0.0108675)
(-9.81813e-08 5.01306e-07 0.0108675)
(-2.80799e-07 4.74673e-07 0.0108676)
(-4.24372e-07 4.24516e-07 0.0108677)
(-5.07069e-07 3.55822e-07 0.0108679)
(-5.34291e-07 2.76405e-07 0.0108681)
(5.80796e-07 1.78904e-07 0.0108681)
(5.64375e-07 2.3426e-07 0.0108678)
(4.74628e-07 2.80846e-07 0.0108676)
(3.15334e-07 3.15339e-07 0.0108674)
(1.1051e-07 3.33723e-07 0.0108673)
(-1.10458e-07 3.33727e-07 0.0108673)
(-3.15298e-07 3.15359e-07 0.0108674)
(-4.74578e-07 2.80851e-07 0.0108676)
(-5.64335e-07 2.342e-07 0.0108678)
(-5.80809e-07 1.78858e-07 0.0108681)
(6.06077e-07 6.16595e-08 0.010868)
(5.95055e-07 8.16633e-08 0.0108678)
(5.01287e-07 9.82144e-08 0.0108675)
(3.3372e-07 1.10516e-07 0.0108673)
(1.17055e-07 1.1706e-07 0.0108672)
(-1.16996e-07 1.17057e-07 0.0108672)
(-3.33672e-07 1.10516e-07 0.0108673)
(-5.0125e-07 9.82307e-08 0.0108675)
(-5.95029e-07 8.16687e-08 0.0108678)
(-6.06061e-07 6.16857e-08 0.010868)
(6.06062e-07 -6.17035e-08 0.010868)
(5.95086e-07 -8.16631e-08 0.0108678)
(5.01316e-07 -9.81625e-08 0.0108675)
(3.33726e-07 -1.10452e-07 0.0108673)
(1.17051e-07 -1.16993e-07 0.0108672)
(-1.17001e-07 -1.16999e-07 0.0108672)
(-3.33671e-07 -1.10467e-07 0.0108673)
(-5.0126e-07 -9.81804e-08 0.0108675)
(-5.95039e-07 -8.16829e-08 0.0108678)
(-6.06062e-07 -6.16641e-08 0.010868)
(5.80821e-07 -1.7884e-07 0.0108681)
(5.64428e-07 -2.34191e-07 0.0108678)
(4.74658e-07 -2.80788e-07 0.0108676)
(3.15341e-07 -3.153e-07 0.0108674)
(1.10508e-07 -3.33668e-07 0.0108673)
(-1.1047e-07 -3.33675e-07 0.0108673)
(-3.15305e-07 -3.15314e-07 0.0108674)
(-4.74626e-07 -2.80813e-07 0.0108676)
(-5.64349e-07 -2.34236e-07 0.0108678)
(-5.8078e-07 -1.78809e-07 0.0108681)
(5.343e-07 -2.76322e-07 0.0108681)
(5.07164e-07 -3.55798e-07 0.0108679)
(4.24481e-07 -4.24448e-07 0.0108677)
(2.80845e-07 -4.74591e-07 0.0108676)
(9.82237e-08 -5.01244e-07 0.0108675)
(-9.81953e-08 -5.01266e-07 0.0108675)
(-2.80809e-07 -4.74636e-07 0.0108676)
(-4.24458e-07 -4.24467e-07 0.0108677)
(-5.07063e-07 -3.55801e-07 0.0108679)
(-5.34227e-07 -2.76357e-07 0.0108681)
(4.61934e-07 -3.40322e-07 0.0108682)
(4.28778e-07 -4.28767e-07 0.0108681)
(3.55856e-07 -5.07062e-07 0.0108679)
(2.34266e-07 -5.64309e-07 0.0108678)
(8.16676e-08 -5.95017e-07 0.0108678)
(-8.17036e-08 -5.95027e-07 0.0108678)
(-2.3423e-07 -5.64339e-07 0.0108678)
(-3.55792e-07 -5.07085e-07 0.0108679)
(-4.28717e-07 -4.28746e-07 0.0108681)
(-4.61905e-07 -3.40431e-07 0.0108682)
(4.04007e-07 -4.04002e-07 0.010868)
(3.40406e-07 -4.61821e-07 0.0108682)
(2.76453e-07 -5.34188e-07 0.0108681)