/*--------------------------------*- C++ -*----------------------------------*\
| =========                 |                                                 |
| \\      /  F ield         | OpenFOAM: The Open Source CFD Toolbox           |
|  \\    /   O peration     | Version:  2412                                  |
|   \\  /    A nd           | Website:  www.openfoam.com                      |
|    \\/     M anipulation  |                                                 |
\*---------------------------------------------------------------------------*/
FoamFile
{
    version     2.0;
    format      ascii;
    arch        "LSB;label=32;scalar=64";
    class       volVectorField;
    location    "6.8";
    object      U;
}
// * * * * * * * * * * * * * * * * * * * * * * * * * * * * * * * * * * * * * //

dimensions      [0 1 -1 0 0 0 0];

internalField   nonuniform List<vector> 
15000
(
(0.00121946 0.00121946 0.0104087)
(0.000902953 0.00114409 0.0103668)
(0.000616538 0.00111894 0.0103302)
(0.000362344 0.00109345 0.0103054)
(0.000119072 0.00108163 0.0102935)
(-0.000119072 0.00108163 0.0102935)
(-0.000362344 0.00109345 0.0103054)
(-0.000616538 0.00111894 0.0103302)
(-0.000902953 0.00114409 0.0103668)
(-0.00121946 0.00121946 0.0104087)
(0.00114409 0.000902953 0.0103668)
(0.000853262 0.000853262 0.0103096)
(0.000584676 0.000816752 0.0102699)
(0.000341135 0.000790368 0.010247)
(0.000111935 0.00077743 0.0102366)
(-0.000111935 0.00077743 0.0102366)
(-0.000341135 0.000790368 0.010247)
(-0.000584676 0.000816752 0.0102699)
(-0.000853262 0.000853262 0.0103096)
(-0.00114409 0.000902953 0.0103668)
(0.00111894 0.000616538 0.0103302)
(0.000816752 0.000584676 0.0102699)
(0.000554995 0.000554995 0.010234)
(0.000321736 0.000533123 0.0102141)
(0.000105295 0.000522022 0.0102051)
(-0.000105295 0.000522022 0.0102051)
(-0.000321736 0.000533123 0.0102141)
(-0.000554995 0.000554995 0.010234)
(-0.000816752 0.000584676 0.0102699)
(-0.00111894 0.000616538 0.0103302)
(0.00109345 0.000362344 0.0103054)
(0.000790368 0.000341135 0.010247)
(0.000533123 0.000321736 0.0102141)
(0.00030744 0.00030744 0.0101958)
(0.000100381 0.000300113 0.0101873)
(-0.000100381 0.000300113 0.0101873)
(-0.00030744 0.00030744 0.0101958)
(-0.000533123 0.000321736 0.0102141)
(-0.000790368 0.000341135 0.010247)
(-0.00109345 0.000362344 0.0103054)
(0.00108163 0.000119072 0.0102935)
(0.00077743 0.000111935 0.0102366)
(0.000522022 0.000105295 0.0102051)
(0.000300113 0.000100381 0.0101873)
(9.78537e-05 9.78537e-05 0.0101789)
(-9.78537e-05 9.78537e-05 0.0101789)
(-0.000300113 0.000100381 0.0101873)
(-0.000522022 0.000105295 0.0102051)
(-0.00077743 0.000111935 0.0102366)
(-0.00108163 0.000119072 0.0102935)
(0.00108163 -0.000119072 0.0102935)
(0.00077743 -0.000111935 0.0102366)
(0.000522022 -0.000105295 0.0102051)
(0.000300113 -0.000100381 0.0101873)
(9.78537e-05 -9.78537e-05 0.0101789)
(-9.78537e-05 -9.78537e-05 0.0101789)
(-0.000300113 -0.000100381 0.0101873)
(-0.000522022 -0.000105295 0.0102051)
(-0.00077743 -0.000111935 0.0102366)
(-0.00108163 -0.000119072 0.0102935)
(0.00109345 -0.000362344 0.0103054)
(0.000790368 -0.000341135 0.010247)
(0.000533123 -0.000321736 0.0102141)
(0.00030744 -0.00030744 0.0101958)
(0.000100381 -0.000300113 0.0101873)
(-0.000100381 -0.000300113 0.0101873)
(-0.00030744 -0.00030744 0.0101958)
(-0.000533123 -0.000321736 0.0102141)
(-0.000790368 -0.000341135 0.010247)
(-0.00109345 -0.000362344 0.0103054)
(0.00111894 -0.000616538 0.0103302)
(0.000816752 -0.000584676 0.0102699)
(0.000554995 -0.000554995 0.010234)
(0.000321736 -0.000533123 0.0102141)
(0.000105295 -0.000522022 0.0102051)
(-0.000105295 -0.000522022 0.0102051)
(-0.000321736 -0.000533123 0.0102141)
(-0.000554995 -0.000554995 0.010234)
(-0.000816752 -0.000584676 0.0102699)
(-0.00111894 -0.000616538 0.0103302)
(0.00114409 -0.000902953 0.0103668)
(0.000853262 -0.000853262 0.0103096)
(0.000584676 -0.000816752 0.0102699)
(0.000341135 -0.000790368 0.010247)
(0.000111935 -0.00077743 0.0102366)
(-0.000111935 -0.00077743 0.0102366)
(-0.000341135 -0.000790368 0.010247)
(-0.000584676 -0.000816752 0.0102699)
(-0.000853262 -0.000853262 0.0103096)
(-0.00114409 -0.000902953 0.0103668)
(0.00121946 -0.00121946 0.0104087)
(0.000902953 -0.00114409 0.0103668)
(0.000616538 -0.00111894 0.0103302)
(0.000362344 -0.00109345 0.0103054)
(0.000119072 -0.00108163 0.0102935)
(-0.000119072 -0.00108163 0.0102935)
(-0.000362344 -0.00109345 0.0103054)
(-0.000616538 -0.00111894 0.0103302)
(-0.000902953 -0.00114409 0.0103668)
(-0.00121946 -0.00121946 0.0104087)
(0.000792791 0.000792791 0.0126573)
(0.000628129 0.000839118 0.0126387)
(0.000447766 0.000866754 0.0125547)
(0.000267998 0.000877921 0.0124704)
(8.87632e-05 0.00088302 0.0124218)
(-8.87632e-05 0.00088302 0.0124218)
(-0.000267998 0.000877921 0.0124704)
(-0.000447766 0.000866754 0.0125547)
(-0.000628129 0.000839118 0.0126387)
(-0.000792791 0.000792791 0.0126573)
(0.000839118 0.000628129 0.0126387)
(0.000652412 0.000652412 0.01249)
(0.000458233 0.000660139 0.0123131)
(0.000270704 0.000659786 0.0121763)
(8.93119e-05 0.000658912 0.0121045)
(-8.93119e-05 0.000658912 0.0121045)
(-0.000270704 0.000659786 0.0121763)
(-0.000458233 0.000660139 0.0123131)
(-0.000652412 0.000652412 0.01249)
(-0.000839118 0.000628129 0.0126387)
(0.000866754 0.000447766 0.0125547)
(0.000660139 0.000458233 0.0123131)
(0.000457897 0.000457897 0.0120847)
(0.000268303 0.000454262 0.0119228)
(8.82651e-05 0.000451922 0.0118409)
(-8.82651e-05 0.000451922 0.0118409)
(-0.000268303 0.000454262 0.0119228)
(-0.000457897 0.000457897 0.0120847)
(-0.000660139 0.000458233 0.0123131)
(-0.000866754 0.000447766 0.0125547)
(0.000877921 0.000267998 0.0124704)
(0.000659786 0.000270704 0.0121763)
(0.000454262 0.000268303 0.0119228)
(0.000265073 0.000265073 0.0117504)
(8.7073e-05 0.0002632 0.0116648)
(-8.7073e-05 0.0002632 0.0116648)
(-0.000265073 0.000265073 0.0117504)
(-0.000454262 0.000268303 0.0119228)
(-0.000659786 0.000270704 0.0121763)
(-0.000877921 0.000267998 0.0124704)
(0.00088302 8.87632e-05 0.0124218)
(0.000658912 8.93119e-05 0.0121045)
(0.000451922 8.82651e-05 0.0118409)
(0.0002632 8.7073e-05 0.0116648)
(8.63993e-05 8.63993e-05 0.0115781)
(-8.63993e-05 8.63993e-05 0.0115781)
(-0.0002632 8.7073e-05 0.0116648)
(-0.000451922 8.82651e-05 0.0118409)
(-0.000658912 8.93119e-05 0.0121045)
(-0.00088302 8.87632e-05 0.0124218)
(0.00088302 -8.87632e-05 0.0124218)
(0.000658912 -8.93119e-05 0.0121045)
(0.000451922 -8.82651e-05 0.0118409)
(0.0002632 -8.7073e-05 0.0116648)
(8.63993e-05 -8.63993e-05 0.0115781)
(-8.63993e-05 -8.63993e-05 0.0115781)
(-0.0002632 -8.7073e-05 0.0116648)
(-0.000451922 -8.82651e-05 0.0118409)
(-0.000658912 -8.93119e-05 0.0121045)
(-0.00088302 -8.87632e-05 0.0124218)
(0.000877921 -0.000267998 0.0124704)
(0.000659786 -0.000270704 0.0121763)
(0.000454262 -0.000268303 0.0119228)
(0.000265073 -0.000265073 0.0117504)
(8.7073e-05 -0.0002632 0.0116648)
(-8.7073e-05 -0.0002632 0.0116648)
(-0.000265073 -0.000265073 0.0117504)
(-0.000454262 -0.000268303 0.0119228)
(-0.000659786 -0.000270704 0.0121763)
(-0.000877921 -0.000267998 0.0124704)
(0.000866754 -0.000447766 0.0125547)
(0.000660139 -0.000458233 0.0123131)
(0.000457897 -0.000457897 0.0120847)
(0.000268303 -0.000454262 0.0119228)
(8.82651e-05 -0.000451922 0.0118409)
(-8.82651e-05 -0.000451922 0.0118409)
(-0.000268303 -0.000454262 0.0119228)
(-0.000457897 -0.000457897 0.0120847)
(-0.000660139 -0.000458233 0.0123131)
(-0.000866754 -0.000447766 0.0125547)
(0.000839118 -0.000628129 0.0126387)
(0.000652412 -0.000652412 0.01249)
(0.000458233 -0.000660139 0.0123131)
(0.000270704 -0.000659786 0.0121763)
(8.93119e-05 -0.000658912 0.0121045)
(-8.93119e-05 -0.000658912 0.0121045)
(-0.000270704 -0.000659786 0.0121763)
(-0.000458233 -0.000660139 0.0123131)
(-0.000652412 -0.000652412 0.01249)
(-0.000839118 -0.000628129 0.0126387)
(0.000792791 -0.000792791 0.0126573)
(0.000628129 -0.000839118 0.0126387)
(0.000447766 -0.000866754 0.0125547)
(0.000267998 -0.000877921 0.0124704)
(8.87632e-05 -0.00088302 0.0124218)
(-8.87632e-05 -0.00088302 0.0124218)
(-0.000267998 -0.000877921 0.0124704)
(-0.000447766 -0.000866754 0.0125547)
(-0.000628129 -0.000839118 0.0126387)
(-0.000792791 -0.000792791 0.0126573)
(0.000566936 0.000566936 0.0125223)
(0.000474758 0.000638946 0.012796)
(0.000357576 0.000687859 0.0128905)
(0.000221191 0.00071671 0.0129032)
(7.45294e-05 0.000730563 0.0128962)
(-7.45294e-05 0.000730563 0.0128962)
(-0.000221191 0.00071671 0.0129032)
(-0.000357576 0.000687859 0.0128905)
(-0.000474758 0.000638946 0.012796)
(-0.000566936 0.000566936 0.0125223)
(0.000638946 0.000474758 0.012796)
(0.000532703 0.000532703 0.012904)
(0.000395344 0.000567905 0.0128582)
(0.000242341 0.000586887 0.0127826)
(8.14479e-05 0.000595509 0.0127345)
(-8.14479e-05 0.000595509 0.0127345)
(-0.000242341 0.000586887 0.0127826)
(-0.000395344 0.000567905 0.0128582)
(-0.000532703 0.000532703 0.012904)
(-0.000638946 0.000474758 0.012796)
(0.000687859 0.000357576 0.0128905)
(0.000567905 0.000395344 0.0128582)
(0.000417858 0.000417858 0.0127194)
(0.000254655 0.000429683 0.0125934)
(8.54255e-05 0.0004349 0.0125241)
(-8.54255e-05 0.0004349 0.0125241)
(-0.000254655 0.000429683 0.0125934)
(-0.000417858 0.000417858 0.0127194)
(-0.000567905 0.000395344 0.0128582)
(-0.000687859 0.000357576 0.0128905)
(0.00071671 0.000221191 0.0129032)
(0.000586887 0.000242341 0.0127826)
(0.000429683 0.000254655 0.0125934)
(0.000261116 0.000261116 0.0124438)
(8.75106e-05 0.000263938 0.0123657)
(-8.75106e-05 0.000263938 0.0123657)
(-0.000261116 0.000261116 0.0124438)
(-0.000429683 0.000254655 0.0125934)
(-0.000586887 0.000242341 0.0127826)
(-0.00071671 0.000221191 0.0129032)
(0.000730563 7.45294e-05 0.0128962)
(0.000595509 8.14479e-05 0.0127345)
(0.0004349 8.54255e-05 0.0125241)
(0.000263938 8.75106e-05 0.0123657)
(8.84161e-05 8.84161e-05 0.0122848)
(-8.84161e-05 8.84161e-05 0.0122848)
(-0.000263938 8.75106e-05 0.0123657)
(-0.0004349 8.54255e-05 0.0125241)
(-0.000595509 8.14479e-05 0.0127345)
(-0.000730563 7.45294e-05 0.0128962)
(0.000730563 -7.45294e-05 0.0128962)
(0.000595509 -8.14479e-05 0.0127345)
(0.0004349 -8.54255e-05 0.0125241)
(0.000263938 -8.75106e-05 0.0123657)
(8.84161e-05 -8.84161e-05 0.0122848)
(-8.84161e-05 -8.84161e-05 0.0122848)
(-0.000263938 -8.75106e-05 0.0123657)
(-0.0004349 -8.54255e-05 0.0125241)
(-0.000595509 -8.14479e-05 0.0127345)
(-0.000730563 -7.45294e-05 0.0128962)
(0.00071671 -0.000221191 0.0129032)
(0.000586887 -0.000242341 0.0127826)
(0.000429683 -0.000254655 0.0125934)
(0.000261116 -0.000261116 0.0124438)
(8.75106e-05 -0.000263938 0.0123657)
(-8.75106e-05 -0.000263938 0.0123657)
(-0.000261116 -0.000261116 0.0124438)
(-0.000429683 -0.000254655 0.0125934)
(-0.000586887 -0.000242341 0.0127826)
(-0.00071671 -0.000221191 0.0129032)
(0.000687859 -0.000357576 0.0128905)
(0.000567905 -0.000395344 0.0128582)
(0.000417858 -0.000417858 0.0127194)
(0.000254655 -0.000429683 0.0125934)
(8.54255e-05 -0.0004349 0.0125241)
(-8.54255e-05 -0.0004349 0.0125241)
(-0.000254655 -0.000429683 0.0125934)
(-0.000417858 -0.000417858 0.0127194)
(-0.000567905 -0.000395344 0.0128582)
(-0.000687859 -0.000357576 0.0128905)
(0.000638946 -0.000474758 0.012796)
(0.000532703 -0.000532703 0.012904)
(0.000395344 -0.000567905 0.0128582)
(0.000242341 -0.000586887 0.0127826)
(8.14479e-05 -0.000595509 0.0127345)
(-8.14479e-05 -0.000595509 0.0127345)
(-0.000242341 -0.000586887 0.0127826)
(-0.000395344 -0.000567905 0.0128582)
(-0.000532703 -0.000532703 0.012904)
(-0.000638946 -0.000474758 0.012796)
(0.000566936 -0.000566936 0.0125223)
(0.000474758 -0.000638946 0.012796)
(0.000357576 -0.000687859 0.0128905)
(0.000221191 -0.00071671 0.0129032)
(7.45294e-05 -0.000730563 0.0128962)
(-7.45294e-05 -0.000730563 0.0128962)
(-0.000221191 -0.00071671 0.0129032)
(-0.000357576 -0.000687859 0.0128905)
(-0.000474758 -0.000638946 0.012796)
(-0.000566936 -0.000566936 0.0125223)
(0.000253438 0.000253438 0.0127359)
(0.000222999 0.000309913 0.013145)
(0.000177205 0.000350928 0.0133372)
(0.000112934 0.000378518 0.01341)
(3.86554e-05 0.000392136 0.0134312)
(-3.86554e-05 0.000392136 0.0134312)
(-0.000112934 0.000378518 0.01341)
(-0.000177205 0.000350928 0.0133372)
(-0.000222999 0.000309913 0.013145)
(-0.000253438 0.000253438 0.0127359)
(0.000309913 0.000222999 0.013145)
(0.00027483 0.00027483 0.0134037)
(0.000214793 0.000311857 0.0134525)
(0.000136127 0.000335389 0.0134308)
(4.65156e-05 0.000346875 0.0134068)
(-4.65156e-05 0.000346875 0.0134068)
(-0.000136127 0.000335389 0.0134308)
(-0.000214793 0.000311857 0.0134525)
(-0.00027483 0.00027483 0.0134037)
(-0.000309913 0.000222999 0.013145)
(0.000350928 0.000177205 0.0133372)
(0.000311857 0.000214793 0.0134525)
(0.000242493 0.000242493 0.0133991)
(0.000153159 0.000260071 0.013319)
(5.22836e-05 0.000268616 0.0132697)
(-5.22836e-05 0.000268616 0.0132697)
(-0.000153159 0.000260071 0.013319)
(-0.000242493 0.000242493 0.0133991)
(-0.000311857 0.000214793 0.0134525)
(-0.000350928 0.000177205 0.0133372)
(0.000378518 0.000112934 0.01341)
(0.000335389 0.000136127 0.0134308)
(0.000260071 0.000153159 0.013319)
(0.000163988 0.000163988 0.0132098)
(5.59507e-05 0.000169237 0.0131492)
(-5.59507e-05 0.000169237 0.0131492)
(-0.000163988 0.000163988 0.0132098)
(-0.000260071 0.000153159 0.013319)
(-0.000335389 0.000136127 0.0134308)
(-0.000378518 0.000112934 0.01341)
(0.000392136 3.86554e-05 0.0134312)
(0.000346875 4.65156e-05 0.0134068)
(0.000268616 5.22836e-05 0.0132697)
(0.000169237 5.59507e-05 0.0131492)
(5.77233e-05 5.77233e-05 0.0130845)
(-5.77233e-05 5.77233e-05 0.0130845)
(-0.000169237 5.59507e-05 0.0131492)
(-0.000268616 5.22836e-05 0.0132697)
(-0.000346875 4.65156e-05 0.0134068)
(-0.000392136 3.86554e-05 0.0134312)
(0.000392136 -3.86554e-05 0.0134312)
(0.000346875 -4.65156e-05 0.0134068)
(0.000268616 -5.22836e-05 0.0132697)
(0.000169237 -5.59507e-05 0.0131492)
(5.77233e-05 -5.77233e-05 0.0130845)
(-5.77233e-05 -5.77233e-05 0.0130845)
(-0.000169237 -5.59507e-05 0.0131492)
(-0.000268616 -5.22836e-05 0.0132697)
(-0.000346875 -4.65156e-05 0.0134068)
(-0.000392136 -3.86554e-05 0.0134312)
(0.000378518 -0.000112934 0.01341)
(0.000335389 -0.000136127 0.0134308)
(0.000260071 -0.000153159 0.013319)
(0.000163988 -0.000163988 0.0132098)
(5.59507e-05 -0.000169237 0.0131492)
(-5.59507e-05 -0.000169237 0.0131492)
(-0.000163988 -0.000163988 0.0132098)
(-0.000260071 -0.000153159 0.013319)
(-0.000335389 -0.000136127 0.0134308)
(-0.000378518 -0.000112934 0.01341)
(0.000350928 -0.000177205 0.0133372)
(0.000311857 -0.000214793 0.0134525)
(0.000242493 -0.000242493 0.0133991)
(0.000153159 -0.000260071 0.013319)
(5.22836e-05 -0.000268616 0.0132697)
(-5.22836e-05 -0.000268616 0.0132697)
(-0.000153159 -0.000260071 0.013319)
(-0.000242493 -0.000242493 0.0133991)
(-0.000311857 -0.000214793 0.0134525)
(-0.000350928 -0.000177205 0.0133372)
(0.000309913 -0.000222999 0.013145)
(0.00027483 -0.00027483 0.0134037)
(0.000214793 -0.000311857 0.0134525)
(0.000136127 -0.000335389 0.0134308)
(4.65156e-05 -0.000346875 0.0134068)
(-4.65156e-05 -0.000346875 0.0134068)
(-0.000136127 -0.000335389 0.0134308)
(-0.000214793 -0.000311857 0.0134525)
(-0.00027483 -0.00027483 0.0134037)
(-0.000309913 -0.000222999 0.013145)
(0.000253438 -0.000253438 0.0127359)
(0.000222999 -0.000309913 0.013145)
(0.000177205 -0.000350928 0.0133372)
(0.000112934 -0.000378518 0.01341)
(3.86554e-05 -0.000392136 0.0134312)
(-3.86554e-05 -0.000392136 0.0134312)
(-0.000112934 -0.000378518 0.01341)
(-0.000177205 -0.000350928 0.0133372)
(-0.000222999 -0.000309913 0.013145)
(-0.000253438 -0.000253438 0.0127359)
(0.000114605 0.000114605 0.0126547)
(0.00010372 0.000144275 0.0131429)
(8.56071e-05 0.000167808 0.0134004)
(5.57255e-05 0.000184585 0.0135187)
(1.92876e-05 0.000193042 0.0135628)
(-1.92876e-05 0.000193042 0.0135628)
(-5.57255e-05 0.000184585 0.0135187)
(-8.56071e-05 0.000167808 0.0134004)
(-0.00010372 0.000144275 0.0131429)
(-0.000114605 0.000114605 0.0126547)
(0.000144275 0.00010372 0.0131429)
(0.000134417 0.000134417 0.0135057)
(0.000109359 0.00015812 0.0136337)
(7.10234e-05 0.000174144 0.0136648)
(2.45595e-05 0.000182186 0.0136669)
(-2.45595e-05 0.000182186 0.0136669)
(-7.10234e-05 0.000174144 0.0136648)
(-0.000109359 0.00015812 0.0136337)
(-0.000134417 0.000134417 0.0135057)
(-0.000144275 0.00010372 0.0131429)
(0.000167808 8.56071e-05 0.0134004)
(0.00015812 0.000109359 0.0136337)
(0.00012828 0.00012828 0.0136668)
(8.3144e-05 0.000140987 0.0136428)
(2.87319e-05 0.000147332 0.013621)
(-2.87319e-05 0.000147332 0.013621)
(-8.31439e-05 0.000140987 0.0136428)
(-0.00012828 0.00012828 0.0136668)
(-0.00015812 0.000109359 0.0136337)
(-0.000167808 8.56071e-05 0.0134004)
(0.000184585 5.57256e-05 0.0135187)
(0.000174144 7.10234e-05 0.0136648)
(0.000140987 8.3144e-05 0.0136428)
(9.12381e-05 9.12381e-05 0.0135909)
(3.15094e-05 9.52556e-05 0.0135581)
(-3.15094e-05 9.52556e-05 0.0135581)
(-9.12381e-05 9.12381e-05 0.0135909)
(-0.000140987 8.3144e-05 0.0136428)
(-0.000174144 7.10234e-05 0.0136648)
(-0.000184585 5.57256e-05 0.0135187)
(0.000193042 1.92876e-05 0.0135628)
(0.000182186 2.45596e-05 0.0136669)
(0.000147332 2.87319e-05 0.013621)
(9.52556e-05 3.15094e-05 0.0135581)
(3.28828e-05 3.28828e-05 0.0135212)
(-3.28827e-05 3.28828e-05 0.0135212)
(-9.52556e-05 3.15094e-05 0.0135581)
(-0.000147332 2.87319e-05 0.013621)
(-0.000182186 2.45595e-05 0.0136669)
(-0.000193042 1.92876e-05 0.0135628)
(0.000193042 -1.92876e-05 0.0135628)
(0.000182186 -2.45595e-05 0.0136669)
(0.000147332 -2.87319e-05 0.013621)
(9.52556e-05 -3.15094e-05 0.0135581)
(3.28828e-05 -3.28827e-05 0.0135212)
(-3.28827e-05 -3.28827e-05 0.0135212)
(-9.52556e-05 -3.15094e-05 0.0135581)
(-0.000147332 -2.87319e-05 0.013621)
(-0.000182186 -2.45595e-05 0.0136669)
(-0.000193042 -1.92876e-05 0.0135628)
(0.000184585 -5.57256e-05 0.0135187)
(0.000174144 -7.10234e-05 0.0136648)
(0.000140987 -8.31439e-05 0.0136428)
(9.12381e-05 -9.12381e-05 0.0135909)
(3.15094e-05 -9.52556e-05 0.0135581)
(-3.15094e-05 -9.52556e-05 0.0135581)
(-9.12381e-05 -9.12381e-05 0.0135909)
(-0.000140987 -8.3144e-05 0.0136428)
(-0.000174144 -7.10234e-05 0.0136648)
(-0.000184585 -5.57255e-05 0.0135187)
(0.000167808 -8.56071e-05 0.0134004)
(0.00015812 -0.000109359 0.0136337)
(0.00012828 -0.00012828 0.0136668)
(8.3144e-05 -0.000140987 0.0136428)
(2.87319e-05 -0.000147332 0.013621)
(-2.87319e-05 -0.000147332 0.013621)
(-8.3144e-05 -0.000140987 0.0136428)
(-0.00012828 -0.00012828 0.0136668)
(-0.00015812 -0.000109359 0.0136337)
(-0.000167808 -8.5607e-05 0.0134004)
(0.000144275 -0.00010372 0.0131429)
(0.000134417 -0.000134417 0.0135057)
(0.000109359 -0.00015812 0.0136337)
(7.10234e-05 -0.000174144 0.0136648)
(2.45595e-05 -0.000182186 0.0136669)
(-2.45595e-05 -0.000182186 0.0136669)
(-7.10234e-05 -0.000174144 0.0136648)
(-0.000109359 -0.00015812 0.0136337)
(-0.000134417 -0.000134417 0.0135057)
(-0.000144275 -0.00010372 0.0131429)
(0.000114605 -0.000114605 0.0126547)
(0.00010372 -0.000144275 0.0131429)
(8.56071e-05 -0.000167808 0.0134004)
(5.57256e-05 -0.000184585 0.0135187)
(1.92876e-05 -0.000193042 0.0135628)
(-1.92876e-05 -0.000193042 0.0135628)
(-5.57255e-05 -0.000184585 0.0135187)
(-8.5607e-05 -0.000167808 0.0134004)
(-0.00010372 -0.000144275 0.0131429)
(-0.000114605 -0.000114605 0.0126547)
(4.11385e-05 4.11385e-05 0.0125966)
(3.95371e-05 5.56062e-05 0.0131083)
(3.46518e-05 6.78153e-05 0.0133903)
(2.32893e-05 7.69847e-05 0.013528)
(8.1949e-06 8.16991e-05 0.0135826)
(-8.1949e-06 8.16991e-05 0.0135826)
(-2.32893e-05 7.69846e-05 0.013528)
(-3.46518e-05 6.78152e-05 0.0133903)
(-3.95371e-05 5.56062e-05 0.0131083)
(-4.11385e-05 4.11385e-05 0.0125966)
(5.56062e-05 3.95371e-05 0.0131083)
(5.58271e-05 5.58271e-05 0.0135134)
(4.80313e-05 6.93046e-05 0.0136797)
(3.22311e-05 7.8904e-05 0.0137393)
(1.13205e-05 8.38383e-05 0.0137563)
(-1.13205e-05 8.38383e-05 0.0137563)
(-3.22311e-05 7.89039e-05 0.0137393)
(-4.80313e-05 6.93046e-05 0.0136797)
(-5.58271e-05 5.58271e-05 0.0135134)
(-5.56062e-05 3.95371e-05 0.0131083)
(6.78153e-05 3.46518e-05 0.0133903)
(6.93046e-05 4.80313e-05 0.0136797)
(5.94008e-05 5.94008e-05 0.0137613)
(3.97556e-05 6.73886e-05 0.0137718)
(1.39445e-05 7.14672e-05 0.0137677)
(-1.39445e-05 7.14672e-05 0.0137677)
(-3.97556e-05 6.73886e-05 0.0137718)
(-5.94008e-05 5.94008e-05 0.0137613)
(-6.93046e-05 4.80313e-05 0.0136797)
(-6.78152e-05 3.46518e-05 0.0133903)
(7.69846e-05 2.32893e-05 0.013528)
(7.89039e-05 3.22311e-05 0.0137393)
(6.73886e-05 3.97556e-05 0.0137718)
(4.49842e-05 4.49842e-05 0.0137578)
(1.57589e-05 4.76336e-05 0.0137441)
(-1.57589e-05 4.76336e-05 0.0137441)
(-4.49842e-05 4.49842e-05 0.0137578)
(-6.73886e-05 3.97556e-05 0.0137718)
(-7.89039e-05 3.22311e-05 0.0137393)
(-7.69846e-05 2.32893e-05 0.013528)
(8.16991e-05 8.1949e-06 0.0135826)
(8.38383e-05 1.13205e-05 0.0137563)
(7.14672e-05 1.39445e-05 0.0137677)
(4.76336e-05 1.57589e-05 0.0137441)
(1.66745e-05 1.66745e-05 0.0137268)
(-1.66745e-05 1.66745e-05 0.0137268)
(-4.76336e-05 1.57589e-05 0.0137441)
(-7.14672e-05 1.39445e-05 0.0137677)
(-8.38383e-05 1.13205e-05 0.0137563)
(-8.16991e-05 8.1949e-06 0.0135826)
(8.16991e-05 -8.1949e-06 0.0135826)
(8.38383e-05 -1.13205e-05 0.0137563)
(7.14672e-05 -1.39445e-05 0.0137677)
(4.76336e-05 -1.57589e-05 0.0137441)
(1.66745e-05 -1.66745e-05 0.0137268)
(-1.66745e-05 -1.66745e-05 0.0137268)
(-4.76336e-05 -1.57589e-05 0.0137441)
(-7.14672e-05 -1.39445e-05 0.0137677)
(-8.38383e-05 -1.13205e-05 0.0137563)
(-8.16991e-05 -8.1949e-06 0.0135826)
(7.69846e-05 -2.32893e-05 0.013528)
(7.89039e-05 -3.22311e-05 0.0137393)
(6.73886e-05 -3.97556e-05 0.0137718)
(4.49842e-05 -4.49842e-05 0.0137578)
(1.57589e-05 -4.76336e-05 0.0137441)
(-1.57589e-05 -4.76336e-05 0.0137441)
(-4.49842e-05 -4.49842e-05 0.0137578)
(-6.73886e-05 -3.97556e-05 0.0137718)
(-7.89039e-05 -3.22311e-05 0.0137393)
(-7.69846e-05 -2.32893e-05 0.013528)
(6.78152e-05 -3.46518e-05 0.0133903)
(6.93046e-05 -4.80313e-05 0.0136797)
(5.94008e-05 -5.94008e-05 0.0137613)
(3.97556e-05 -6.73886e-05 0.0137718)
(1.39445e-05 -7.14672e-05 0.0137677)
(-1.39445e-05 -7.14672e-05 0.0137677)
(-3.97556e-05 -6.73886e-05 0.0137718)
(-5.94008e-05 -5.94008e-05 0.0137613)
(-6.93046e-05 -4.80313e-05 0.0136797)
(-6.78152e-05 -3.46518e-05 0.0133903)
(5.56062e-05 -3.95371e-05 0.0131083)
(5.58271e-05 -5.58271e-05 0.0135134)
(4.80313e-05 -6.93046e-05 0.0136797)
(3.22311e-05 -7.89039e-05 0.0137393)
(1.13205e-05 -8.38383e-05 0.0137563)
(-1.13205e-05 -8.38383e-05 0.0137563)
(-3.22311e-05 -7.89039e-05 0.0137393)
(-4.80313e-05 -6.93046e-05 0.0136797)
(-5.58271e-05 -5.58271e-05 0.0135134)
(-5.56062e-05 -3.95371e-05 0.0131083)
(4.11385e-05 -4.11385e-05 0.0125966)
(3.95371e-05 -5.56062e-05 0.0131083)
(3.46518e-05 -6.78152e-05 0.0133903)
(2.32893e-05 -7.69846e-05 0.013528)
(8.1949e-06 -8.16991e-05 0.0135826)
(-8.1949e-06 -8.16991e-05 0.0135826)
(-2.32893e-05 -7.69846e-05 0.013528)
(-3.46518e-05 -6.78152e-05 0.0133903)
(-3.95371e-05 -5.56062e-05 0.0131083)
(-4.11385e-05 -4.11385e-05 0.0125966)
(1.18869e-05 1.18869e-05 0.0125688)
(1.23409e-05 1.7633e-05 0.0130868)
(1.16386e-05 2.28194e-05 0.0133777)
(8.10255e-06 2.69396e-05 0.0135232)
(2.90863e-06 2.90994e-05 0.0135824)
(-2.90862e-06 2.90994e-05 0.0135824)
(-8.10254e-06 2.69396e-05 0.0135232)
(-1.16386e-05 2.28194e-05 0.0133777)
(-1.23409e-05 1.7633e-05 0.0130868)
(-1.18869e-05 1.18869e-05 0.0125688)
(1.7633e-05 1.23409e-05 0.0130868)
(1.94217e-05 1.94217e-05 0.0135079)
(1.78298e-05 2.57151e-05 0.0136913)
(1.23961e-05 3.04419e-05 0.0137646)
(4.42948e-06 3.29286e-05 0.0137893)
(-4.42947e-06 3.29286e-05 0.0137893)
(-1.23961e-05 3.04419e-05 0.0137646)
(-1.78298e-05 2.57151e-05 0.0136913)
(-1.94217e-05 1.94217e-05 0.0135079)
(-1.7633e-05 1.23409e-05 0.0130868)
(2.28194e-05 1.16386e-05 0.0133777)
(2.57151e-05 1.78298e-05 0.0136913)
(2.34471e-05 2.34471e-05 0.0137969)
(1.62392e-05 2.75806e-05 0.0138255)
(5.78686e-06 2.97379e-05 0.013831)
(-5.78685e-06 2.97379e-05 0.013831)
(-1.62392e-05 2.75806e-05 0.0138255)
(-2.34471e-05 2.34471e-05 0.0137969)
(-2.57151e-05 1.78298e-05 0.0136913)
(-2.28194e-05 1.16386e-05 0.0133777)
(2.69396e-05 8.10255e-06 0.0135232)
(3.04419e-05 1.23961e-05 0.0137646)
(2.75806e-05 1.62392e-05 0.0138255)
(1.90253e-05 1.90253e-05 0.0138323)
(6.7653e-06 2.04676e-05 0.0138293)
(-6.7653e-06 2.04676e-05 0.0138293)
(-1.90253e-05 1.90253e-05 0.0138323)
(-2.75806e-05 1.62392e-05 0.0138255)
(-3.04419e-05 1.23961e-05 0.0137646)
(-2.69396e-05 8.10254e-06 0.0135232)
(2.90994e-05 2.90863e-06 0.0135824)
(3.29286e-05 4.42948e-06 0.0137893)
(2.97379e-05 5.78686e-06 0.013831)
(2.04676e-05 6.76531e-06 0.0138293)
(7.26985e-06 7.26985e-06 0.0138233)
(-7.26985e-06 7.26985e-06 0.0138233)
(-2.04676e-05 6.76531e-06 0.0138293)
(-2.97379e-05 5.78685e-06 0.013831)
(-3.29286e-05 4.42948e-06 0.0137893)
(-2.90994e-05 2.90862e-06 0.0135824)
(2.90994e-05 -2.90863e-06 0.0135824)
(3.29286e-05 -4.42947e-06 0.0137893)
(2.97379e-05 -5.78685e-06 0.013831)
(2.04676e-05 -6.7653e-06 0.0138293)
(7.26985e-06 -7.26985e-06 0.0138233)
(-7.26985e-06 -7.26985e-06 0.0138233)
(-2.04676e-05 -6.7653e-06 0.0138293)
(-2.97379e-05 -5.78685e-06 0.013831)
(-3.29286e-05 -4.42947e-06 0.0137893)
(-2.90994e-05 -2.90862e-06 0.0135824)
(2.69396e-05 -8.10255e-06 0.0135232)
(3.04419e-05 -1.23961e-05 0.0137646)
(2.75806e-05 -1.62392e-05 0.0138255)
(1.90253e-05 -1.90253e-05 0.0138323)
(6.7653e-06 -2.04676e-05 0.0138293)
(-6.7653e-06 -2.04676e-05 0.0138293)
(-1.90253e-05 -1.90253e-05 0.0138323)
(-2.75806e-05 -1.62392e-05 0.0138255)
(-3.04419e-05 -1.23961e-05 0.0137646)
(-2.69396e-05 -8.10254e-06 0.0135232)
(2.28194e-05 -1.16386e-05 0.0133777)
(2.57151e-05 -1.78298e-05 0.0136913)
(2.34471e-05 -2.34471e-05 0.0137969)
(1.62392e-05 -2.75806e-05 0.0138255)
(5.78685e-06 -2.97379e-05 0.013831)
(-5.78685e-06 -2.97379e-05 0.013831)
(-1.62392e-05 -2.75806e-05 0.0138255)
(-2.34471e-05 -2.34471e-05 0.0137969)
(-2.57151e-05 -1.78298e-05 0.0136913)
(-2.28194e-05 -1.16386e-05 0.0133777)
(1.7633e-05 -1.23409e-05 0.0130868)
(1.94217e-05 -1.94217e-05 0.0135079)
(1.78298e-05 -2.57151e-05 0.0136913)
(1.23961e-05 -3.04419e-05 0.0137646)
(4.42947e-06 -3.29286e-05 0.0137893)
(-4.42947e-06 -3.29286e-05 0.0137893)
(-1.23961e-05 -3.04419e-05 0.0137646)
(-1.78298e-05 -2.57151e-05 0.0136913)
(-1.94217e-05 -1.94217e-05 0.0135079)
(-1.7633e-05 -1.23409e-05 0.0130868)
(1.18869e-05 -1.18869e-05 0.0125688)
(1.23409e-05 -1.7633e-05 0.0130868)
(1.16386e-05 -2.28194e-05 0.0133777)
(8.10254e-06 -2.69396e-05 0.0135232)
(2.90862e-06 -2.90994e-05 0.0135824)
(-2.90862e-06 -2.90994e-05 0.0135824)
(-8.10254e-06 -2.69396e-05 0.0135232)
(-1.16386e-05 -2.28194e-05 0.0133777)
(-1.23409e-05 -1.7633e-05 0.0130868)
(-1.18869e-05 -1.18869e-05 0.0125688)
(2.78872e-06 2.78872e-06 0.0125562)
(3.26878e-06 4.75628e-06 0.0130751)
(3.41709e-06 6.63924e-06 0.0133684)
(2.4848e-06 8.22097e-06 0.0135167)
(9.15313e-07 9.0625e-06 0.0135776)
(-9.15311e-07 9.0625e-06 0.0135776)
(-2.4848e-06 8.22096e-06 0.0135167)
(-3.41709e-06 6.63924e-06 0.0133684)
(-3.26878e-06 4.75627e-06 0.0130751)
(-2.78872e-06 2.78872e-06 0.0125562)
(4.75628e-06 3.26878e-06 0.0130751)
(5.92251e-06 5.92251e-06 0.0135011)
(5.86325e-06 8.42536e-06 0.0136911)
(4.23327e-06 1.03912e-05 0.0137702)
(1.54121e-06 1.14449e-05 0.0137982)
(-1.54121e-06 1.14449e-05 0.0137982)
(-4.23327e-06 1.03912e-05 0.0137702)
(-5.86324e-06 8.42536e-06 0.0136911)
(-5.9225e-06 5.9225e-06 0.0135011)
(-4.75628e-06 3.26878e-06 0.0130751)
(6.63924e-06 3.41709e-06 0.0133684)
(8.42536e-06 5.86325e-06 0.0136911)
(8.20825e-06 8.20824e-06 0.0138069)
(5.88368e-06 1.00046e-05 0.0138439)
(2.13032e-06 1.09592e-05 0.0138539)
(-2.13032e-06 1.09592e-05 0.0138539)
(-5.88367e-06 1.00046e-05 0.0138439)
(-8.20824e-06 8.20824e-06 0.0138069)
(-8.42535e-06 5.86325e-06 0.0136911)
(-6.63923e-06 3.41709e-06 0.0133684)
(8.22097e-06 2.4848e-06 0.0135167)
(1.03912e-05 4.23327e-06 0.0137702)
(1.00046e-05 5.88368e-06 0.0138439)
(7.12678e-06 7.12678e-06 0.0138605)
(2.57145e-06 7.78207e-06 0.0138628)
(-2.57145e-06 7.78207e-06 0.0138628)
(-7.12678e-06 7.12679e-06 0.0138605)
(-1.00046e-05 5.88368e-06 0.0138439)
(-1.03912e-05 4.23327e-06 0.0137702)
(-8.22096e-06 2.4848e-06 0.0135167)
(9.0625e-06 9.15313e-07 0.0135776)
(1.14449e-05 1.54121e-06 0.0137982)
(1.09592e-05 2.13032e-06 0.0138539)
(7.78207e-06 2.57146e-06 0.0138628)
(2.80322e-06 2.80322e-06 0.0138624)
(-2.80322e-06 2.80322e-06 0.0138624)
(-7.78206e-06 2.57146e-06 0.0138628)
(-1.09592e-05 2.13032e-06 0.0138539)
(-1.14449e-05 1.54121e-06 0.0137982)
(-9.06249e-06 9.15311e-07 0.0135776)
(9.06249e-06 -9.15312e-07 0.0135776)
(1.14449e-05 -1.54121e-06 0.0137982)
(1.09592e-05 -2.13032e-06 0.0138539)
(7.78207e-06 -2.57145e-06 0.0138628)
(2.80322e-06 -2.80322e-06 0.0138624)
(-2.80322e-06 -2.80322e-06 0.0138624)
(-7.78206e-06 -2.57145e-06 0.0138628)
(-1.09592e-05 -2.13031e-06 0.0138539)
(-1.14449e-05 -1.54121e-06 0.0137982)
(-9.06249e-06 -9.15312e-07 0.0135776)
(8.22096e-06 -2.4848e-06 0.0135167)
(1.03912e-05 -4.23327e-06 0.0137702)
(1.00046e-05 -5.88367e-06 0.0138439)
(7.12678e-06 -7.12678e-06 0.0138605)
(2.57146e-06 -7.78206e-06 0.0138628)
(-2.57145e-06 -7.78206e-06 0.0138628)
(-7.12678e-06 -7.12678e-06 0.0138605)
(-1.00046e-05 -5.88367e-06 0.0138439)
(-1.03912e-05 -4.23327e-06 0.0137702)
(-8.22096e-06 -2.4848e-06 0.0135167)
(6.63923e-06 -3.41709e-06 0.0133684)
(8.42536e-06 -5.86324e-06 0.0136911)
(8.20825e-06 -8.20824e-06 0.0138069)
(5.88368e-06 -1.00046e-05 0.0138439)
(2.13032e-06 -1.09592e-05 0.0138539)
(-2.13032e-06 -1.09592e-05 0.0138539)
(-5.88367e-06 -1.00046e-05 0.0138439)
(-8.20824e-06 -8.20824e-06 0.0138069)
(-8.42535e-06 -5.86324e-06 0.0136911)
(-6.63923e-06 -3.41709e-06 0.0133684)
(4.75628e-06 -3.26878e-06 0.0130751)
(5.92251e-06 -5.9225e-06 0.0135011)
(5.86324e-06 -8.42535e-06 0.0136911)
(4.23327e-06 -1.03912e-05 0.0137702)
(1.54121e-06 -1.14449e-05 0.0137982)
(-1.54121e-06 -1.14449e-05 0.0137982)
(-4.23327e-06 -1.03912e-05 0.0137702)
(-5.86324e-06 -8.42535e-06 0.0136911)
(-5.9225e-06 -5.9225e-06 0.0135011)
(-4.75627e-06 -3.26877e-06 0.0130751)
(2.78872e-06 -2.78872e-06 0.0125562)
(3.26878e-06 -4.75627e-06 0.0130751)
(3.41709e-06 -6.63923e-06 0.0133684)
(2.4848e-06 -8.22096e-06 0.0135167)