/*--------------------------------*- C++ -*----------------------------------*\
| =========                 |                                                 |
| \\      /  F ield         | OpenFOAM: The Open Source CFD Toolbox           |
|  \\    /   O peration     | Version:  2412                                  |
|   \\  /    A nd           | Website:  www.openfoam.com                      |
|    \\/     M anipulation  |                                                 |
\*---------------------------------------------------------------------------*/
FoamFile
{
    version     2.0;
    format      ascii;
    arch        "LSB;label=32;scalar=64";
    class       surfaceScalarField;
    location    "1.8";
    object      phi;
}
// * * * * * * * * * * * * * * * * * * * * * * * * * * * * * * * * * * * * * //

dimensions      [0 3 -1 0 0 0 0];

oriented        oriented;

internalField   nonuniform List<scalar> 
43700
(
1.35788e-07
1.35788e-07
5.32496e-07
-1.67027e-07
-1.67027e-07
9.90446e-08
1.18349e-07
5.72049e-07
-1.4427e-07
6.54187e-08
1.08784e-07
6.01467e-07
-1.37195e-07
3.24164e-08
1.02387e-07
6.20998e-07
-1.3067e-07
-2.34384e-15
9.93988e-08
6.30777e-07
-1.27831e-07
-3.24164e-08
9.93988e-08
6.30777e-07
-1.27831e-07
-6.54187e-08
1.02387e-07
6.20998e-07
-1.3067e-07
-9.90446e-08
1.08784e-07
6.01467e-07
-1.37195e-07
-1.35788e-07
1.18349e-07
5.72049e-07
-1.4427e-07
1.35788e-07
5.32496e-07
-1.67027e-07
-1.67027e-07
1.18349e-07
9.90446e-08
5.72049e-07
-1.4427e-07
8.80941e-08
8.80941e-08
6.06353e-07
5.8269e-08
8.03846e-08
6.31915e-07
2.89285e-08
7.52504e-08
6.48973e-07
-4.97148e-16
7.27742e-08
6.57525e-07
-2.89285e-08
7.27742e-08
6.57525e-07
-5.8269e-08
7.52504e-08
6.48973e-07
-8.80941e-08
8.03846e-08
6.31915e-07
-1.18349e-07
8.80941e-08
6.06353e-07
9.90446e-08
5.72049e-07
-1.4427e-07
1.08784e-07
6.54187e-08
6.01467e-07
-1.37195e-07
8.03846e-08
5.8269e-08
6.31915e-07
5.2924e-08
5.2924e-08
6.54794e-07
2.62313e-08
4.93688e-08
6.70137e-07
1.10401e-15
4.76381e-08
6.77845e-07
-2.62313e-08
4.76381e-08
6.77845e-07
-5.2924e-08
4.93688e-08
6.70137e-07
-8.03846e-08
5.2924e-08
6.54794e-07
-1.08784e-07
5.8269e-08
6.31915e-07
6.54187e-08
6.01467e-07
-1.37195e-07
1.02387e-07
3.24164e-08
6.20998e-07
-1.3067e-07
7.52504e-08
2.89285e-08
6.48973e-07
4.93688e-08
2.62313e-08
6.70137e-07
2.4426e-08
2.4426e-08
6.84389e-07
1.56843e-15
2.35428e-08
6.91563e-07
-2.4426e-08
2.35428e-08
6.91563e-07
-4.93688e-08
2.4426e-08
6.84389e-07
-7.52504e-08
2.62313e-08
6.70137e-07
-1.02387e-07
2.89285e-08
6.48973e-07
3.24164e-08
6.20998e-07
-1.3067e-07
9.93988e-08
-3.99932e-15
6.30777e-07
-1.27831e-07
7.27742e-08
-2.6358e-15
6.57525e-07
4.76381e-08
5.4037e-17
6.77845e-07
2.35428e-08
2.868e-15
6.91563e-07
2.26136e-15
3.01508e-15
6.98478e-07
-2.35428e-08
1.54813e-15
6.98478e-07
-4.76381e-08
1.16049e-15
6.91563e-07
-7.27742e-08
3.10059e-15
6.77845e-07
-9.93988e-08
6.56447e-15
6.57525e-07
3.29902e-15
6.30777e-07
-1.27831e-07
9.93988e-08
-3.24164e-08
6.30777e-07
-1.27831e-07
7.27742e-08
-2.89285e-08
6.57525e-07
4.76381e-08
-2.62313e-08
6.77845e-07
2.35428e-08
-2.4426e-08
6.91563e-07
6.55308e-16
-2.35428e-08
6.98478e-07
-2.35428e-08
-2.35428e-08
6.98478e-07
-4.76381e-08
-2.4426e-08
6.91563e-07
-7.27742e-08
-2.62313e-08
6.77845e-07
-9.93988e-08
-2.89284e-08
6.57525e-07
-3.24164e-08
6.30777e-07
-1.27831e-07
1.02387e-07
-6.54187e-08
6.20998e-07
-1.3067e-07
7.52504e-08
-5.8269e-08
6.48973e-07
4.93688e-08
-5.2924e-08
6.70137e-07
2.4426e-08
-4.93688e-08
6.84389e-07
1.52798e-18
-4.76381e-08
6.91563e-07
-2.4426e-08
-4.76381e-08
6.91563e-07
-4.93688e-08
-4.93688e-08
6.84389e-07
-7.52504e-08
-5.2924e-08
6.70137e-07
-1.02387e-07
-5.8269e-08
6.48973e-07
-6.54187e-08
6.20998e-07
-1.3067e-07
1.08784e-07
-9.90446e-08
6.01467e-07
-1.37195e-07
8.03846e-08
-8.80941e-08
6.31915e-07
5.2924e-08
-8.03846e-08
6.54794e-07
2.62313e-08
-7.52504e-08
6.70137e-07
1.90231e-15
-7.27742e-08
6.77845e-07
-2.62313e-08
-7.27742e-08
6.77845e-07
-5.2924e-08
-7.52504e-08
6.70137e-07
-8.03846e-08
-8.03846e-08
6.54794e-07
-1.08784e-07
-8.80941e-08
6.31915e-07
-9.90446e-08
6.01467e-07
-1.37195e-07
1.18349e-07
-1.35788e-07
5.72049e-07
-1.4427e-07
8.80941e-08
-1.18349e-07
6.06353e-07
5.8269e-08
-1.08784e-07
6.31915e-07
2.89285e-08
-1.02387e-07
6.48973e-07
4.81946e-15
-9.93988e-08
6.57525e-07
-2.89284e-08
-9.93988e-08
6.57525e-07
-5.8269e-08
-1.02387e-07
6.48973e-07
-8.80941e-08
-1.08784e-07
6.31915e-07
-1.18349e-07
-1.18349e-07
6.06353e-07
-1.35788e-07
5.72049e-07
-1.4427e-07
1.35788e-07
5.32496e-07
-1.67027e-07
-1.67027e-07
9.90446e-08
5.72049e-07
-1.4427e-07
6.54187e-08
6.01467e-07
-1.37195e-07
3.24164e-08
6.20998e-07
-1.3067e-07
2.89422e-15
6.30777e-07
-1.27831e-07
-3.24164e-08
6.30777e-07
-1.27831e-07
-6.54187e-08
6.20998e-07
-1.3067e-07
-9.90446e-08
6.01467e-07
-1.37195e-07
-1.35788e-07
5.72049e-07
-1.4427e-07
5.32496e-07
-1.67027e-07
-1.67027e-07
5.29643e-08
5.29643e-08
5.46177e-07
-5.98047e-08
-5.98047e-08
4.21815e-08
5.2781e-08
5.88678e-07
-5.8628e-08
2.95108e-08
5.32424e-08
6.20499e-07
-5.96038e-08
1.51299e-08
5.32639e-08
6.41747e-07
-5.96316e-08
1.83794e-16
5.33348e-08
6.5242e-07
-5.98478e-08
-1.51299e-08
5.33348e-08
6.5242e-07
-5.98477e-08
-2.95108e-08
5.32639e-08
6.41747e-07
-5.96316e-08
-4.21815e-08
5.32424e-08
6.20499e-07
-5.96038e-08
-5.29643e-08
5.2781e-08
5.88678e-07
-5.8628e-08
5.29643e-08
5.46177e-07
-5.98047e-08
-5.98047e-08
5.2781e-08
4.21815e-08
5.88678e-07
-5.8628e-08
4.28456e-08
4.28456e-08
6.26224e-07
3.0218e-08
4.32849e-08
6.545e-07
1.55961e-08
4.33712e-08
6.73488e-07
5.97988e-16
4.34146e-08
6.83042e-07
-1.55961e-08
4.34146e-08
6.83042e-07
-3.0218e-08
4.33712e-08
6.73488e-07
-4.28456e-08
4.32849e-08
6.545e-07
-5.2781e-08
4.28456e-08
6.26224e-07
4.21816e-08
5.88678e-07
-5.8628e-08
5.32424e-08
2.95108e-08
6.20499e-07
-5.96038e-08
4.32849e-08
3.0218e-08
6.545e-07
3.05392e-08
3.05392e-08
6.80286e-07
1.57766e-08
3.06084e-08
6.97662e-07
1.7563e-15
3.0624e-08
7.06413e-07
-1.57766e-08
3.0624e-08
7.06413e-07
-3.05392e-08
3.06084e-08
6.97662e-07
-4.32849e-08
3.05392e-08
6.80286e-07
-5.32425e-08
3.0218e-08
6.545e-07
2.95108e-08
6.20499e-07
-5.96038e-08
5.32639e-08
1.51299e-08
6.41747e-07
-5.96316e-08
4.33712e-08
1.55961e-08
6.73488e-07
3.06084e-08
1.57766e-08
6.97662e-07
1.58152e-08
1.58152e-08
7.13975e-07
3.24515e-15
1.58182e-08
7.22184e-07
-1.58151e-08
1.58182e-08
7.22184e-07
-3.06084e-08
1.58152e-08
7.13975e-07
-4.33712e-08
1.57766e-08
6.97662e-07
-5.32639e-08
1.55961e-08
6.73488e-07
1.51299e-08
6.41747e-07
-5.96316e-08
5.33348e-08
-1.55392e-15
6.5242e-07
-5.98478e-08
4.34146e-08
-2.45971e-15
6.83042e-07
3.0624e-08
1.36776e-15
7.06413e-07
1.58182e-08
4.39101e-15
7.22184e-07
3.40751e-15
3.75508e-15
7.30115e-07
-1.58182e-08
1.83205e-15
7.30115e-07
-3.0624e-08
5.52481e-16
7.22184e-07
-4.34146e-08
3.96993e-15
7.06413e-07
-5.33348e-08
7.75095e-15
6.83042e-07
3.80347e-15
6.5242e-07
-5.98478e-08
5.33348e-08
-1.51299e-08
6.5242e-07
-5.98477e-08
4.34146e-08
-1.55961e-08
6.83042e-07
3.0624e-08
-1.57766e-08
7.06413e-07
1.58182e-08
-1.58151e-08
7.22184e-07
1.07408e-15
-1.58182e-08
7.30115e-07
-1.58182e-08
-1.58182e-08
7.30115e-07
-3.0624e-08
-1.58152e-08
7.22184e-07
-4.34146e-08
-1.57766e-08
7.06413e-07
-5.33348e-08
-1.55961e-08
6.83042e-07
-1.51298e-08
6.5242e-07
-5.98478e-08
5.32639e-08
-2.95108e-08
6.41747e-07
-5.96316e-08
4.33712e-08
-3.0218e-08
6.73488e-07
3.06084e-08
-3.05392e-08
6.97662e-07
1.58152e-08
-3.06084e-08
7.13975e-07
2.55982e-16
-3.0624e-08
7.22184e-07
-1.58152e-08
-3.0624e-08
7.22184e-07
-3.06084e-08
-3.06084e-08
7.13975e-07
-4.33712e-08
-3.05392e-08
6.97662e-07
-5.32639e-08
-3.0218e-08
6.73488e-07
-2.95108e-08
6.41747e-07
-5.96316e-08
5.32424e-08
-4.21815e-08
6.20499e-07
-5.96038e-08
4.32849e-08
-4.28456e-08
6.545e-07
3.05392e-08
-4.32849e-08
6.80286e-07
1.57766e-08
-4.33712e-08
6.97662e-07
3.29017e-15
-4.34146e-08
7.06413e-07
-1.57766e-08
-4.34146e-08
7.06413e-07
-3.05392e-08
-4.33712e-08
6.97662e-07
-4.32849e-08
-4.32849e-08
6.80286e-07
-5.32424e-08
-4.28456e-08
6.545e-07
-4.21815e-08
6.20499e-07
-5.96038e-08
5.2781e-08
-5.29643e-08
5.88678e-07
-5.8628e-08
4.28456e-08
-5.2781e-08
6.26224e-07
3.0218e-08
-5.32425e-08
6.545e-07
1.55961e-08
-5.32639e-08
6.73488e-07
6.04411e-15
-5.33348e-08
6.83042e-07
-1.55961e-08
-5.33348e-08
6.83042e-07
-3.0218e-08
-5.32639e-08
6.73488e-07
-4.28456e-08
-5.32425e-08
6.545e-07
-5.2781e-08
-5.2781e-08
6.26224e-07
-5.29643e-08
5.88678e-07
-5.8628e-08
5.29643e-08
5.46177e-07
-5.98047e-08
-5.98047e-08
4.21816e-08
5.88678e-07
-5.8628e-08
2.95108e-08
6.20499e-07
-5.96038e-08
1.51299e-08
6.41747e-07
-5.96316e-08
4.95191e-16
6.5242e-07
-5.98477e-08
-1.51298e-08
6.5242e-07
-5.98478e-08
-2.95108e-08
6.41747e-07
-5.96316e-08
-4.21816e-08
6.20499e-07
-5.96038e-08
-5.29643e-08
5.88678e-07
-5.8628e-08
5.46177e-07
-5.98047e-08
-5.98047e-08
2.64183e-08
2.64184e-08
5.48914e-07
-2.7787e-08
-2.7787e-08
2.1898e-08
2.72623e-08
5.9424e-07
-2.83036e-08
1.56409e-08
2.79291e-08
6.28145e-07
-2.93183e-08
8.1046e-09
2.82011e-08
6.50803e-07
-2.97207e-08
-5.31921e-16
2.83333e-08
6.62174e-07
-2.99822e-08
-8.1046e-09
2.83333e-08
6.62174e-07
-2.99822e-08
-1.56409e-08
2.82011e-08
6.50803e-07
-2.97207e-08
-2.1898e-08
2.79291e-08
6.28145e-07
-2.93183e-08
-2.64183e-08
2.72623e-08
5.9424e-07
-2.83037e-08
2.64184e-08
5.48914e-07
-2.7787e-08
-2.7787e-08
2.72623e-08
2.1898e-08
5.9424e-07
-2.83037e-08
2.29386e-08
2.29386e-08
6.34871e-07
1.64667e-08
2.34819e-08
6.6542e-07
8.57388e-09
2.36844e-08
6.85897e-07
3.82698e-17
2.37679e-08
6.96181e-07
-8.57388e-09
2.37679e-08
6.96181e-07
-1.64667e-08
2.36844e-08
6.85897e-07
-2.29386e-08
2.34819e-08
6.6542e-07
-2.72623e-08
2.29386e-08
6.34871e-07
2.1898e-08
5.9424e-07
-2.83037e-08
2.79291e-08
1.56409e-08
6.28145e-07
-2.93183e-08
2.34819e-08
1.64667e-08
6.6542e-07
1.68514e-08
1.68514e-08
6.93547e-07
8.77828e-09
1.69929e-08
7.12427e-07
2.13827e-15
1.70473e-08
7.21911e-07
-8.77828e-09
1.70473e-08
7.21911e-07
-1.68514e-08
1.69929e-08
7.12427e-07
-2.34819e-08
1.68514e-08
6.93547e-07
-2.79291e-08
1.64667e-08
6.6542e-07
1.56409e-08
6.28145e-07
-2.93183e-08
2.82011e-08
8.1046e-09
6.50803e-07
-2.97207e-08
2.36844e-08
8.57388e-09
6.85897e-07
1.69929e-08
8.77829e-09
7.12427e-07
8.85648e-09
8.85648e-09
7.30248e-07
3.56074e-15
8.88685e-09
7.39201e-07
-8.85647e-09
8.88684e-09
7.39201e-07
-1.69929e-08
8.85647e-09
7.30248e-07
-2.36844e-08
8.77828e-09
7.12427e-07
-2.82011e-08
8.57388e-09
6.85897e-07
8.1046e-09
6.50803e-07
-2.97207e-08
2.83333e-08
-6.85987e-16
6.62174e-07
-2.99822e-08
2.37679e-08
6.75889e-16
6.96181e-07
1.70473e-08
4.02072e-15
7.21911e-07
8.88685e-09
5.51874e-15
7.39201e-07
3.21407e-15
4.19048e-15
7.47888e-07
-8.88684e-09
1.57485e-15
7.47888e-07
-1.70473e-08
-5.49931e-17
7.39201e-07
-2.37679e-08
2.23553e-15
7.21911e-07
-2.83333e-08
4.42092e-15
6.96181e-07
2.70788e-15
6.62174e-07
-2.99822e-08
2.83333e-08
-8.1046e-09
6.62174e-07
-2.99822e-08
2.37679e-08
-8.57387e-09
6.96181e-07
1.70473e-08
-8.77828e-09
7.21911e-07
8.88684e-09
-8.85647e-09
7.39201e-07
-5.87639e-17
-8.88684e-09
7.47888e-07
-8.88684e-09
-8.88684e-09
7.47888e-07
-1.70473e-08
-8.85647e-09
7.39201e-07
-2.37679e-08
-8.77828e-09
7.21911e-07
-2.83333e-08
-8.57387e-09
6.96181e-07
-8.1046e-09
6.62174e-07
-2.99822e-08
2.82011e-08
-1.56409e-08
6.50803e-07
-2.97207e-08
2.36844e-08
-1.64667e-08
6.85897e-07
1.69929e-08
-1.68514e-08
7.12427e-07
8.85647e-09
-1.69929e-08
7.30248e-07
-1.06259e-15
-1.70473e-08
7.39201e-07
-8.85647e-09
-1.70473e-08
7.39201e-07
-1.69929e-08
-1.69929e-08
7.30248e-07
-2.36844e-08
-1.68514e-08
7.12427e-07
-2.82011e-08
-1.64667e-08
6.85897e-07
-1.56409e-08
6.50803e-07
-2.97207e-08
2.79291e-08
-2.1898e-08
6.28145e-07
-2.93183e-08
2.34819e-08
-2.29386e-08
6.6542e-07
1.68514e-08
-2.34819e-08
6.93547e-07
8.77828e-09
-2.36844e-08
7.12427e-07
1.26084e-15
-2.37679e-08
7.21911e-07
-8.77828e-09
-2.37679e-08
7.21911e-07
-1.68514e-08
-2.36844e-08
7.12427e-07
-2.34819e-08
-2.34819e-08
6.93547e-07
-2.79291e-08
-2.29386e-08
6.6542e-07
-2.1898e-08
6.28145e-07
-2.93183e-08
2.72623e-08
-2.64184e-08
5.9424e-07
-2.83037e-08
2.29386e-08
-2.72623e-08
6.34871e-07
1.64667e-08
-2.79291e-08
6.6542e-07
8.57388e-09
-2.82011e-08
6.85897e-07
2.84192e-15
-2.83333e-08
6.96181e-07
-8.57387e-09
-2.83333e-08
6.96181e-07
-1.64667e-08
-2.82011e-08
6.85897e-07
-2.29386e-08
-2.79291e-08
6.6542e-07
-2.72623e-08
-2.72623e-08
6.34871e-07
-2.64184e-08
5.9424e-07
-2.83036e-08
2.64184e-08
5.48914e-07
-2.7787e-08
-2.7787e-08
2.1898e-08
5.9424e-07
-2.83036e-08
1.56409e-08
6.28145e-07
-2.93183e-08
8.1046e-09
6.50803e-07
-2.97207e-08
1.23347e-15
6.62174e-07
-2.99822e-08
-8.1046e-09
6.62174e-07
-2.99822e-08
-1.56409e-08
6.50803e-07
-2.97207e-08
-2.1898e-08
6.28145e-07
-2.93183e-08
-2.64184e-08
5.9424e-07
-2.83036e-08
5.48914e-07
-2.7787e-08
-2.7787e-08
9.27002e-09
9.27002e-09
5.48608e-07
-9.11717e-09
-9.11717e-09
8.11784e-09
1.03369e-08
5.95051e-07
-9.99569e-09
6.01241e-09
1.11424e-08
6.29941e-07
-1.08328e-08
3.18305e-09
1.1602e-08
6.53328e-07
-1.12978e-08
9.72424e-16
1.18287e-08
6.65079e-07
-1.15507e-08
-3.18305e-09
1.18287e-08
6.65079e-07
-1.15507e-08
-6.01241e-09
1.1602e-08
6.53328e-07
-1.12978e-08
-8.11783e-09
1.11424e-08
6.29941e-07
-1.08328e-08
-9.27002e-09
1.0337e-08
5.95051e-07
-9.9957e-09
9.27003e-09
5.48608e-07
-9.11717e-09
-9.11717e-09
1.03369e-08
8.11783e-09
5.95051e-07
-9.99569e-09
9.1742e-09
9.1742e-09
6.37197e-07
6.82993e-09
9.88533e-09
6.69021e-07
3.63195e-09
1.02895e-08
6.90408e-07
2.6741e-16
1.04817e-08
7.0116e-07
-3.63195e-09
1.04817e-08
7.0116e-07
-6.82993e-09
1.02895e-08
6.90408e-07
-9.1742e-09
9.88532e-09
6.69021e-07
-1.03369e-08
9.1742e-09
6.37197e-07
8.11784e-09
5.95051e-07
-9.99568e-09
1.11424e-08
6.01241e-09
6.29941e-07
-1.08328e-08
9.88532e-09
6.82993e-09
6.69021e-07
7.35291e-09
7.35291e-09
6.98611e-07
3.90933e-09
7.64868e-09
7.18511e-07
2.51428e-15
7.78636e-09
7.28516e-07
-3.90932e-09
7.78636e-09
7.28516e-07
-7.35291e-09
7.64868e-09
7.18511e-07
-9.88532e-09
7.35291e-09
6.98611e-07
-1.11424e-08
6.82994e-09
6.69021e-07
6.01241e-09
6.29941e-07
-1.08328e-08
1.1602e-08
3.18305e-09
6.53328e-07
-1.12978e-08
1.02895e-08
3.63195e-09
6.90408e-07
7.64868e-09
3.90933e-09
7.18511e-07
4.06586e-09
4.06586e-09
7.37413e-07
3.62109e-15
4.13796e-09
7.46915e-07
-4.06586e-09
4.13796e-09
7.46915e-07
-7.64868e-09
4.06586e-09
7.37413e-07
-1.02895e-08
3.90933e-09
7.18511e-07
-1.1602e-08
3.63196e-09
6.90408e-07
3.18305e-09
6.53328e-07
-1.12978e-08
1.18287e-08
-2.39826e-16
6.65079e-07
-1.15507e-08
1.04817e-08
-5.96045e-16
7.0116e-07
7.78636e-09
2.3239e-15
7.28516e-07
4.13796e-09
3.64609e-15
7.46915e-07
3.17113e-15
3.3522e-15
7.56164e-07
-4.13795e-09
1.63043e-15
7.56164e-07
-7.78635e-09
5.06686e-16
7.46915e-07
-1.04817e-08
1.99652e-15
7.28516e-07
-1.18287e-08
2.91999e-15
7.0116e-07
2.23574e-15
6.65079e-07
-1.15507e-08
1.18287e-08
-3.18305e-09
6.65079e-07
-1.15507e-08
1.04817e-08
-3.63196e-09
7.0116e-07
7.78636e-09
-3.90933e-09
7.28516e-07
4.13796e-09
-4.06586e-09
7.46915e-07
1.31699e-15
-4.13795e-09
7.56164e-07
-4.13796e-09
-4.13796e-09
7.56164e-07
-7.78635e-09
-4.06586e-09
7.46915e-07
-1.04817e-08
-3.90933e-09
7.28516e-07
-1.18287e-08
-3.63195e-09
7.0116e-07
-3.18304e-09
6.65079e-07
-1.15507e-08
1.1602e-08
-6.01241e-09
6.53328e-07
-1.12978e-08
1.02895e-08
-6.82993e-09
6.90408e-07
7.64868e-09
-7.35291e-09
7.18511e-07
4.06586e-09
-7.64868e-09
7.37413e-07
7.29752e-16
-7.78635e-09
7.46915e-07
-4.06586e-09
-7.78636e-09
7.46915e-07
-7.64868e-09
-7.64868e-09
7.37413e-07
-1.02895e-08
-7.35291e-09
7.18511e-07
-1.1602e-08
-6.82993e-09
6.90408e-07
-6.0124e-09
6.53328e-07
-1.12978e-08
1.11424e-08
-8.11783e-09
6.29941e-07
-1.08328e-08
9.88533e-09
-9.17421e-09
6.69021e-07
7.35291e-09
-9.88533e-09
6.98611e-07
3.90933e-09
-1.02895e-08
7.18511e-07
2.01692e-15
-1.04817e-08
7.28516e-07
-3.90932e-09
-1.04817e-08
7.28516e-07
-7.35291e-09
-1.02895e-08
7.18511e-07
-9.88532e-09
-9.88532e-09
6.98611e-07
-1.11424e-08
-9.1742e-09
6.69021e-07
-8.11783e-09
6.29941e-07
-1.08328e-08
1.03369e-08
-9.27003e-09
5.95051e-07
-9.99569e-09
9.1742e-09
-1.03369e-08
6.37197e-07
6.82993e-09
-1.11424e-08
6.69021e-07
3.63196e-09
-1.1602e-08
6.90408e-07
2.45896e-15
-1.18287e-08
7.0116e-07
-3.63195e-09
-1.18287e-08
7.0116e-07
-6.82992e-09
-1.1602e-08
6.90408e-07
-9.1742e-09
-1.11424e-08
6.69021e-07
-1.03369e-08
-1.03369e-08
6.37197e-07
-9.27002e-09
5.95051e-07
-9.99568e-09
9.27002e-09
5.48608e-07
-9.11717e-09
-9.11717e-09
8.11783e-09
5.95051e-07
-9.99569e-09
6.0124e-09
6.29941e-07
-1.08328e-08
3.18304e-09
6.53328e-07
-1.12978e-08
6.17405e-16
6.65079e-07
-1.15507e-08
-3.18304e-09
6.65079e-07
-1.15507e-08
-6.0124e-09
6.53328e-07
-1.12978e-08
-8.11782e-09
6.29941e-07
-1.08328e-08
-9.27002e-09
5.95051e-07
-9.99568e-09
5.48608e-07
-9.11717e-09
-9.11717e-09
3.08956e-09
3.08957e-09
5.48308e-07
-2.93933e-09
-2.93933e-09
2.77663e-09
3.58546e-09
5.95101e-07
-3.32289e-09
2.0926e-09
3.97824e-09
6.30325e-07
-3.67842e-09
1.11944e-09
4.22552e-09
6.53972e-07
-3.89694e-09
-2.14556e-15
4.35132e-09
6.65863e-07
-4.01568e-09
-1.11945e-09
4.35132e-09
6.65863e-07
-4.01567e-09
-2.09262e-09
4.22552e-09
6.53972e-07
-3.89693e-09
-2.77664e-09
3.97823e-09
6.30325e-07
-3.67842e-09
-3.08957e-09
3.58545e-09
5.95101e-07
-3.32289e-09
3.08955e-09
5.48308e-07
-2.93932e-09
-2.93933e-09
3.58547e-09
2.77664e-09
5.95101e-07
-3.3229e-09
3.28614e-09
3.28614e-09
6.37796e-07
2.50155e-09
3.66302e-09
6.70121e-07
1.34805e-09
3.90067e-09
6.91886e-07
9.04088e-16
4.01919e-09
7.0284e-07
-1.34805e-09
4.01919e-09
7.0284e-07
-2.50155e-09
3.90067e-09
6.91886e-07
-3.28614e-09
3.66301e-09
6.70121e-07
-3.58547e-09
3.28613e-09
6.37796e-07
2.77662e-09
5.95101e-07
-3.3229e-09
3.97824e-09
2.0926e-09
6.30325e-07
-3.67842e-09
3.66302e-09
2.50155e-09
6.70121e-07
2.79505e-09
2.79505e-09
7.00347e-07
1.5085e-09
2.98009e-09
7.20719e-07
2.88754e-15
3.07123e-09
7.30973e-07
-1.50849e-09
3.07123e-09
7.30973e-07
-2.79504e-09
2.98009e-09
7.20719e-07
-3.66301e-09
2.79504e-09
7.00347e-07
-3.97823e-09
2.50154e-09
6.70121e-07
2.0926e-09
6.30325e-07
-3.67842e-09
4.22552e-09
1.11944e-09
6.53972e-07
-3.89694e-09
3.90067e-09
1.34805e-09
6.91886e-07
2.98009e-09
1.5085e-09
7.20719e-07
1.6097e-09
1.6097e-09
7.40154e-07
3.5234e-15
1.65922e-09
7.49937e-07
-1.60969e-09
1.65922e-09
7.49937e-07
-2.98008e-09
1.60969e-09
7.40154e-07
-3.90066e-09
1.50849e-09
7.20719e-07
-4.22552e-09
1.34805e-09
6.91886e-07
1.11944e-09
6.53972e-07
-3.89694e-09
4.35132e-09
-1.56772e-15
6.65863e-07
-4.01568e-09
4.01919e-09
3.46969e-15
7.0284e-07
3.07122e-09
4.82631e-15
7.30973e-07
1.65922e-09
4.75897e-15
7.49937e-07
2.73713e-15
3.89795e-15
7.59483e-07
-1.65921e-09
2.00515e-15
7.59483e-07
-3.07122e-09
4.94449e-16
7.49937e-07
-4.01918e-09
1.25194e-16
7.30973e-07
-4.35132e-09
-6.68589e-16
7.0284e-07
4.46357e-16
6.65863e-07
-4.01568e-09
4.35132e-09
-1.11945e-09
6.65863e-07
-4.01567e-09
4.01919e-09
-1.34804e-09
7.0284e-07
3.07122e-09
-1.50849e-09
7.30973e-07
1.65921e-09
-1.60969e-09
7.49937e-07
7.97597e-16
-1.65921e-09
7.59483e-07
-1.65921e-09
-1.65921e-09
7.59483e-07
-3.07122e-09
-1.60969e-09
7.49937e-07
-4.01918e-09
-1.50849e-09
7.30973e-07
-4.35132e-09
-1.34805e-09
7.0284e-07
-1.11944e-09
6.65863e-07
-4.01568e-09
4.22552e-09
-2.09261e-09
6.53972e-07
-3.89693e-09
3.90066e-09
-2.50154e-09
6.91886e-07
2.98008e-09
-2.79504e-09
7.20719e-07
1.60969e-09
-2.98008e-09
7.40154e-07
-7.8047e-16
-3.07122e-09
7.49937e-07
-1.60969e-09
-3.07122e-09
7.49937e-07
-2.98009e-09
-2.98009e-09
7.40154e-07
-3.90066e-09
-2.79504e-09
7.20719e-07
-4.22552e-09
-2.50155e-09
6.91886e-07
-2.0926e-09
6.53972e-07
-3.89694e-09
3.97822e-09
-2.77663e-09
6.30325e-07
-3.67842e-09
3.66301e-09
-3.28613e-09
6.70121e-07
2.79504e-09
-3.66301e-09
7.00347e-07
1.50849e-09
-3.90066e-09
7.20719e-07
-8.43409e-16
-4.01918e-09
7.30973e-07
-1.50849e-09
-4.01918e-09
7.30973e-07
-2.79504e-09
-3.90066e-09
7.20719e-07
-3.66302e-09
-3.66301e-09
7.00347e-07
-3.97823e-09
-3.28614e-09
6.70121e-07
-2.77663e-09
6.30325e-07
-3.67842e-09
3.58546e-09
-3.08956e-09
5.95101e-07
-3.32289e-09
3.28613e-09
-3.58545e-09
6.37796e-07
2.50155e-09
-3.97822e-09
6.70121e-07
1.34805e-09
-4.22552e-09
6.91886e-07
-8.19378e-16
-4.35132e-09
7.0284e-07
-1.34805e-09
-4.35132e-09
7.0284e-07
-2.50155e-09
-4.22552e-09
6.91886e-07
-3.28614e-09
-3.97823e-09
6.70121e-07
-3.58547e-09
-3.58546e-09
6.37796e-07
-3.08956e-09
5.95101e-07
-3.32289e-09
3.08956e-09
5.48308e-07
-2.93933e-09
-2.93933e-09
2.77663e-09
5.95101e-07
-3.32289e-09
2.0926e-09
6.30325e-07
-3.67842e-09
1.11944e-09
6.53972e-07
-3.89693e-09
2.14688e-15
6.65863e-07
-4.01568e-09
-1.11944e-09
6.65863e-07
-4.01568e-09
-2.0926e-09
6.53972e-07
-3.89694e-09
-2.77663e-09
6.30325e-07
-3.67842e-09
-3.08956e-09
5.95101e-07
-3.32289e-09
5.48308e-07
-2.93933e-09
-2.93933e-09
1.08516e-09
1.08516e-09
5.48158e-07
-1.01007e-09
-1.01006e-09
9.8888e-10
1.28028e-09
5.95073e-07
-1.1559e-09
7.52082e-10
1.43712e-09
6.30416e-07
-1.29146e-09
4.04506e-10
1.53953e-09
6.54158e-07
-1.3774e-09
-1.79747e-15
1.592e-09
6.66099e-07
-1.42374e-09
-4.04509e-10
1.592e-09
6.66099e-07
-1.42373e-09
-7.52084e-10
1.53952e-09
6.54158e-07
-1.3774e-09
-9.88884e-10
1.43712e-09
6.30416e-07
-1.29146e-09
-1.08516e-09
1.28028e-09
5.95073e-07
-1.1559e-09
1.08516e-09
5.48158e-07
-1.01007e-09
-1.01007e-09
1.28028e-09
9.88885e-10
5.95073e-07
-1.1559e-09
1.19398e-09
1.19398e-09
6.37968e-07
9.19387e-10
1.35043e-09
6.70482e-07
4.98874e-10
1.45298e-09
6.92393e-07
-6.77849e-16
1.50502e-09
7.03426e-07
-4.98876e-10
1.50502e-09
7.03426e-07
-9.19392e-10
1.45297e-09
6.92393e-07
-1.19398e-09
1.35043e-09
6.70482e-07
-1.28029e-09
1.19398e-09
6.37968e-07
9.88881e-10
5.95073e-07
-1.1559e-09
1.43712e-09
7.5208e-10
6.30416e-07
-1.29145e-09
1.35043e-09
9.1939e-10
6.70482e-07
1.04486e-09
1.04486e-09
7.00959e-07
5.68594e-10
1.12737e-09
7.2152e-07
2.50959e-15
1.16893e-09
7.31877e-07
-5.68589e-10
1.16893e-09
7.31877e-07
-1.04485e-09
1.12736e-09
7.2152e-07
-1.35043e-09
1.04486e-09
7.00959e-07
-1.43713e-09
9.19391e-10
6.70482e-07
7.52079e-10
6.30416e-07
-1.29146e-09
1.53953e-09
4.04503e-10
6.54158e-07
-1.3774e-09
1.45298e-09
4.98876e-10
6.92393e-07
1.12736e-09
5.68595e-10
7.2152e-07
6.14592e-10
6.14593e-10
7.4118e-07
3.54419e-15
6.37686e-10
7.51083e-07
-6.14586e-10
6.37684e-10
7.51083e-07
-1.12736e-09
6.1459e-10
7.4118e-07
-1.45297e-09
5.68592e-10
7.2152e-07
-1.53952e-09
4.98876e-10
6.92393e-07
4.04505e-10
6.54158e-07
-1.3774e-09
1.592e-09
-2.92157e-15
6.66099e-07
-1.42374e-09
1.50502e-09
8.45143e-16
7.03426e-07
1.16893e-09
2.55857e-15
7.31877e-07
6.37686e-10
3.6571e-15
7.51083e-07
3.28544e-15
3.47719e-15
7.60758e-07
-6.3768e-10
2.64276e-15
7.60758e-07
-1.16893e-09
1.74662e-15
7.51083e-07
-1.50502e-09
1.84928e-15
7.31877e-07
-1.592e-09
9.76353e-16
7.03426e-07
-7.17217e-16
6.66099e-07
-1.42373e-09
1.592e-09
-4.04511e-10
6.66099e-07
-1.42373e-09
1.50502e-09
-4.98874e-10
7.03426e-07
1.16893e-09
-5.6859e-10
7.31877e-07
6.37684e-10
-6.14586e-10
7.51083e-07
2.63036e-15
-6.37679e-10
7.60758e-07
-6.37679e-10
-6.3768e-10
7.60758e-07
-1.16893e-09
-6.14586e-10
7.51083e-07
-1.50502e-09
-5.68588e-10
7.31877e-07
-1.592e-09
-4.98874e-10
7.03426e-07
-4.04505e-10
6.66099e-07
-1.42374e-09
1.53952e-09
-7.52086e-10
6.54158e-07
-1.3774e-09
1.45297e-09
-9.19391e-10
6.92393e-07
1.12736e-09
-1.04486e-09
7.2152e-07
6.14589e-10
-1.12736e-09
7.4118e-07
1.43821e-15
-1.16893e-09
7.51083e-07
-6.14586e-10
-1.16893e-09
7.51083e-07
-1.12736e-09
-1.12736e-09
7.4118e-07
-1.45297e-09
-1.04485e-09
7.2152e-07
-1.53952e-09
-9.1939e-10
6.92393e-07
-7.52079e-10
6.54158e-07
-1.3774e-09
1.43712e-09
-9.88883e-10
6.30416e-07
-1.29146e-09
1.35043e-09
-1.19399e-09
6.70482e-07
1.04486e-09
-1.35043e-09
7.00959e-07
5.68592e-10
-1.45297e-09
7.2152e-07
1.49213e-15
-1.50502e-09
7.31877e-07
-5.68589e-10
-1.50502e-09
7.31877e-07
-1.04486e-09
-1.45297e-09
7.2152e-07
-1.35043e-09
-1.35043e-09
7.00959e-07
-1.43712e-09
-1.19398e-09
6.70482e-07
-9.88881e-10
6.30416e-07
-1.29145e-09
1.28029e-09
-1.08516e-09
5.95073e-07
-1.1559e-09
1.19398e-09
-1.28029e-09
6.37968e-07
9.19392e-10
-1.43713e-09
6.70482e-07
4.98878e-10
-1.53953e-09
6.92393e-07
1.7188e-15
-1.592e-09
7.03426e-07
-4.98872e-10
-1.592e-09
7.03426e-07
-9.19387e-10
-1.53952e-09
6.92393e-07
-1.19398e-09
-1.43712e-09
6.70482e-07
-1.28028e-09
-1.28029e-09
6.37968e-07
-1.08517e-09
5.95073e-07
-1.15589e-09
1.08516e-09
5.48158e-07
-1.01006e-09
-1.01007e-09
9.88876e-10
5.95073e-07
-1.1559e-09
7.52078e-10
6.30416e-07
-1.29146e-09
4.04504e-10
6.54158e-07
-1.3774e-09
-1.31633e-16
6.66099e-07
-1.42374e-09
-4.04504e-10
6.66099e-07
-1.42374e-09
-7.52074e-10
6.54158e-07
-1.3774e-09
-9.8887e-10
6.30416e-07
-1.29145e-09
-1.08515e-09
5.95073e-07
-1.1559e-09
5.48158e-07
-1.01006e-09
-1.01006e-09
3.79856e-10
3.79864e-10
5.48095e-07
-3.48249e-10
-3.48247e-10
3.50828e-10
4.56365e-10
5.9505e-07
-4.04407e-10
2.69281e-10
5.18573e-10
6.30436e-07
-4.56125e-10
1.45664e-10
5.60046e-10
6.54211e-07
-4.89736e-10
-2.35923e-15
5.81379e-10
6.66171e-07
-5.07725e-10
-1.4567e-10
5.8138e-10
6.66171e-07
-5.07724e-10
-2.6929e-10
5.60045e-10
6.54211e-07
-4.89733e-10
-3.50833e-10
5.18557e-10
6.30436e-07
-4.56118e-10
-3.79849e-10
4.56345e-10
5.9505e-07
-4.04401e-10
3.79851e-10
5.48095e-07
-3.48239e-10
-3.48241e-10
4.56363e-10
3.50839e-10
5.9505e-07
-4.04407e-10
4.31951e-10
4.31949e-10
6.38017e-07
3.36027e-10
4.95252e-10
6.70601e-07
1.83454e-10
5.3767e-10
6.92568e-07
2.41092e-15
5.59377e-10
7.03631e-07
-1.83449e-10
5.59377e-10
7.03631e-07
-3.36019e-10
5.37667e-10
6.92568e-07
-4.31944e-10
4.95243e-10
6.70601e-07
-4.56361e-10
4.31938e-10
6.38017e-07
3.50822e-10
5.9505e-07
-4.04404e-10
5.18584e-10
2.69281e-10
6.30436e-07
-4.56125e-10
4.95259e-10
3.36029e-10
6.70601e-07
3.8749e-10
3.87486e-10
7.01174e-07
2.12258e-10
4.22116e-10
7.21811e-07
4.25117e-15
4.39751e-10
7.32209e-07
-2.12249e-10
4.3975e-10
7.32209e-07
-3.87479e-10
4.22112e-10
7.21811e-07
-4.95247e-10
3.87479e-10
7.01174e-07
-5.18566e-10
3.36017e-10
6.70601e-07
2.69277e-10
6.30436e-07
-4.56123e-10
5.60052e-10
1.4566e-10
6.54211e-07
-4.89737e-10
5.37675e-10
1.83456e-10
6.92568e-07
4.22118e-10
2.12257e-10
7.21811e-07
2.31721e-10
2.31721e-10
7.41561e-07
3.91311e-15
2.41612e-10
7.51513e-07
-2.31713e-10
2.41611e-10
7.51513e-07
-4.2211e-10
2.31717e-10
7.41561e-07
-5.37667e-10
2.12252e-10
7.21811e-07
-5.60045e-10
1.83448e-10
6.92568e-07
1.45661e-10
6.54211e-07
-4.89737e-10
5.81379e-10
-3.79015e-15
6.66171e-07
-5.07726e-10
5.59377e-10
3.68247e-15
7.03631e-07
4.39751e-10
4.6406e-15
7.32209e-07
2.41611e-10
4.64695e-15
7.51513e-07
3.05128e-15
3.8463e-15
7.61241e-07
-2.41605e-10
2.43698e-15
7.61241e-07
-4.39745e-10
7.41055e-16
7.51513e-07
-5.59372e-10
-1.8271e-16
7.32209e-07
-5.81375e-10
-1.95662e-15
7.03631e-07
8.4999e-16
6.66171e-07
-5.07727e-10
5.81378e-10
-1.4567e-10
6.66171e-07
-5.07724e-10
5.59376e-10
-1.83448e-10
7.03631e-07
4.39749e-10
-2.12247e-10
7.32209e-07
2.41609e-10
-2.31712e-10
7.51513e-07
1.51643e-15
-2.41605e-10
7.61241e-07
-2.41607e-10
-2.41606e-10
7.61241e-07
-4.39746e-10
-2.31716e-10
7.51513e-07
-5.59373e-10
-2.12253e-10
7.32209e-07
-5.81376e-10
-1.83453e-10
7.03631e-07
-1.45658e-10
6.66171e-07
-5.07728e-10
5.60046e-10
-2.6929e-10
6.54211e-07
-4.89733e-10
5.37669e-10
-3.36019e-10
6.92568e-07
4.22113e-10
-3.87475e-10
7.21811e-07
2.31717e-10
-4.22107e-10
7.41561e-07
2.11702e-16
-4.39744e-10
7.51513e-07
-2.31717e-10
-4.39745e-10
7.51513e-07
-4.22112e-10
-4.22112e-10
7.41561e-07
-5.37668e-10
-3.87483e-10
7.21811e-07
-5.60045e-10
-3.36024e-10
6.92568e-07
-2.69273e-10
6.54211e-07
-4.89736e-10
5.18563e-10
-3.50834e-10
6.30436e-07
-4.5612e-10
4.95247e-10
-4.31945e-10
6.70601e-07
3.87482e-10
-4.95243e-10
7.01174e-07
2.12253e-10
-5.37664e-10
7.21811e-07
1.78823e-16
-5.5937e-10
7.32209e-07
-2.12252e-10
-5.59373e-10
7.32209e-07
-3.87481e-10
-5.37669e-10
7.21811e-07
-4.95248e-10
-4.95251e-10
7.01174e-07
-5.18569e-10
-4.31945e-10
6.70601e-07
-3.50822e-10
6.30436e-07
-4.5612e-10
4.56352e-10
-3.79855e-10
5.9505e-07
-4.04403e-10
4.31938e-10
-4.56355e-10
6.38017e-07
3.36015e-10
-5.1856e-10
6.70601e-07
1.83446e-10
-5.60044e-10
6.92568e-07
-2.23226e-15
-5.81375e-10
7.03631e-07
-1.83452e-10
-5.81377e-10
7.03631e-07
-3.36023e-10
-5.60047e-10
6.92568e-07
-4.31944e-10
-5.18574e-10
6.70601e-07
-4.56358e-10
-4.56358e-10
6.38017e-07
-3.79849e-10
5.9505e-07
-4.04402e-10
3.79849e-10
5.48095e-07
-3.48241e-10
-3.48241e-10
3.50819e-10
5.9505e-07
-4.044e-10
2.69273e-10
6.30436e-07
-4.56119e-10
1.45659e-10
6.54211e-07
-4.89737e-10
8.07332e-16
6.66171e-07
-5.07728e-10
-1.45659e-10
6.66171e-07
-5.07728e-10
-2.69276e-10
6.54211e-07
-4.89738e-10
-3.50828e-10
6.30436e-07
-4.56123e-10
-3.79855e-10
5.9505e-07
-4.044e-10
5.48095e-07
-3.48243e-10
-3.48239e-10
1.33226e-10
1.3322e-10
5.48071e-07
-1.21257e-10
-1.21259e-10
1.23983e-10
1.61916e-10
5.9504e-07
-1.41978e-10
9.56588e-11
1.8556e-10
6.30439e-07
-1.60995e-10
5.19231e-11
2.01615e-10
6.54227e-07
-1.73619e-10
-1.15924e-15
2.09922e-10
6.66193e-07
-1.80365e-10
-5.19254e-11
2.0992e-10
6.66193e-07
-1.80364e-10
-9.56607e-11
2.01613e-10
6.54227e-07
-1.73617e-10
-1.23986e-10
1.85566e-10
6.30439e-07
-1.60997e-10
-1.33229e-10
1.61918e-10
5.9504e-07
-1.41978e-10
1.33228e-10
5.48071e-07
-1.21262e-10
-1.21261e-10
1.61913e-10
1.23978e-10
5.9504e-07
-1.41975e-10
1.5473e-10
1.5473e-10
6.38031e-07
1.21212e-10
1.79257e-10
6.70641e-07
6.64636e-11
1.96014e-10
6.92629e-07
-4.09394e-16
2.04663e-10
7.03703e-07
-6.64645e-11
2.04661e-10
7.03703e-07
-1.21215e-10
1.96013e-10
6.92629e-07
-1.54733e-10
1.79259e-10
6.70641e-07
-1.61923e-10
1.54733e-10
6.38031e-07
1.23979e-10
5.9504e-07
-1.41979e-10
1.85555e-10
9.56544e-11
6.30439e-07
-1.60993e-10
1.79253e-10
1.21213e-10
6.70641e-07
1.41411e-10
1.41415e-10
7.0125e-07
7.7852e-11
1.55286e-10
7.21916e-07
8.29285e-16
1.62421e-10
7.32329e-07
-7.7851e-11
1.6242e-10
7.32329e-07
-1.41413e-10
1.55286e-10
7.21916e-07
-1.79257e-10
1.41416e-10
7.0125e-07
-1.85563e-10
1.21215e-10
6.70641e-07
9.56529e-11
6.30439e-07
-1.60995e-10
2.01609e-10
5.19222e-11
6.54227e-07
-1.73618e-10
1.9601e-10
6.64638e-11
6.92629e-07
1.55284e-10
7.78535e-11
7.21916e-07
8.571e-11
8.57107e-11
7.417e-07
1.64384e-15
8.97474e-11
7.51671e-07
-8.57074e-11
8.9747e-11
7.51671e-07
-1.55283e-10
8.57109e-11
7.417e-07
-1.9601e-10
7.78543e-11
7.21916e-07
-2.01611e-10
6.64637e-11
6.92629e-07
5.19203e-11