/*--------------------------------*- C++ -*----------------------------------*\
| =========                 |                                                 |
| \\      /  F ield         | OpenFOAM: The Open Source CFD Toolbox           |
|  \\    /   O peration     | Version:  2412                                  |
|   \\  /    A nd           | Website:  www.openfoam.com                      |
|    \\/     M anipulation  |                                                 |
\*---------------------------------------------------------------------------*/
FoamFile
{
    version     2.0;
    format      ascii;
    arch        "LSB;label=32;scalar=64";
    class       volVectorField;
    location    "1.8";
    object      U;
}
// * * * * * * * * * * * * * * * * * * * * * * * * * * * * * * * * * * * * * //

dimensions      [0 1 -1 0 0 0 0];

internalField   nonuniform List<vector> 
15000
(
(0.000898931 0.000898931 0.0106182)
(0.000651581 0.000819968 0.0105562)
(0.000441682 0.000802348 0.0105062)
(0.000259342 0.000781711 0.010472)
(8.49599e-05 0.000772912 0.0104551)
(-8.49599e-05 0.000772912 0.0104551)
(-0.000259342 0.000781711 0.010472)
(-0.000441682 0.000802348 0.0105062)
(-0.000651581 0.000819968 0.0105562)
(-0.000898931 0.000898931 0.0106182)
(0.000819968 0.000651581 0.0105562)
(0.000609376 0.000609376 0.0104815)
(0.000419274 0.000585091 0.0104248)
(0.000245605 0.000568253 0.0103881)
(8.06826e-05 0.000560505 0.0103703)
(-8.06826e-05 0.000560505 0.0103703)
(-0.000245605 0.000568253 0.0103881)
(-0.000419274 0.000585091 0.0104248)
(-0.000609375 0.000609375 0.0104815)
(-0.000819968 0.000651581 0.0105562)
(0.000802348 0.000441682 0.0105062)
(0.000585091 0.000419274 0.0104248)
(0.000400527 0.000400527 0.0103666)
(0.000233459 0.00038697 0.0103299)
(7.66018e-05 0.000380306 0.0103122)
(-7.66017e-05 0.000380306 0.0103122)
(-0.000233459 0.00038697 0.0103299)
(-0.000400527 0.000400527 0.0103666)
(-0.000585091 0.000419274 0.0104248)
(-0.000802348 0.000441682 0.0105062)
(0.000781711 0.000259342 0.010472)
(0.000568253 0.000245605 0.0103881)
(0.00038697 0.000233459 0.0103299)
(0.000224698 0.000224698 0.0102936)
(7.36334e-05 0.000220337 0.0102763)
(-7.36334e-05 0.000220337 0.0102763)
(-0.000224698 0.000224698 0.0102936)
(-0.00038697 0.000233459 0.0103299)
(-0.000568253 0.000245605 0.0103881)
(-0.000781711 0.000259342 0.010472)
(0.000772912 8.49599e-05 0.0104551)
(0.000560505 8.06826e-05 0.0103703)
(0.000380306 7.66018e-05 0.0103122)
(0.000220337 7.36334e-05 0.0102763)
(7.21457e-05 7.21457e-05 0.0102593)
(-7.21457e-05 7.21457e-05 0.0102593)
(-0.000220337 7.36334e-05 0.0102763)
(-0.000380306 7.66018e-05 0.0103122)
(-0.000560505 8.06826e-05 0.0103703)
(-0.000772912 8.496e-05 0.0104551)
(0.000772912 -8.49599e-05 0.0104551)
(0.000560505 -8.06826e-05 0.0103703)
(0.000380306 -7.66018e-05 0.0103122)
(0.000220337 -7.36334e-05 0.0102763)
(7.21457e-05 -7.21457e-05 0.0102593)
(-7.21457e-05 -7.21457e-05 0.0102593)
(-0.000220337 -7.36334e-05 0.0102763)
(-0.000380306 -7.66017e-05 0.0103122)
(-0.000560505 -8.06825e-05 0.0103703)
(-0.000772912 -8.49599e-05 0.0104551)
(0.000781711 -0.000259342 0.010472)
(0.000568253 -0.000245605 0.0103881)
(0.00038697 -0.000233459 0.0103299)
(0.000224698 -0.000224698 0.0102936)
(7.36334e-05 -0.000220337 0.0102763)
(-7.36334e-05 -0.000220337 0.0102763)
(-0.000224698 -0.000224698 0.0102936)
(-0.00038697 -0.000233459 0.0103299)
(-0.000568253 -0.000245605 0.0103881)
(-0.000781711 -0.000259342 0.010472)
(0.000802348 -0.000441682 0.0105062)
(0.000585091 -0.000419274 0.0104248)
(0.000400527 -0.000400527 0.0103666)
(0.000233459 -0.00038697 0.0103299)
(7.66018e-05 -0.000380306 0.0103122)
(-7.66017e-05 -0.000380306 0.0103122)
(-0.000233459 -0.00038697 0.0103299)
(-0.000400527 -0.000400527 0.0103666)
(-0.000585091 -0.000419274 0.0104248)
(-0.000802348 -0.000441682 0.0105062)
(0.000819968 -0.000651581 0.0105562)
(0.000609376 -0.000609375 0.0104815)
(0.000419274 -0.000585091 0.0104248)
(0.000245605 -0.000568253 0.0103881)
(8.06826e-05 -0.000560505 0.0103703)
(-8.06826e-05 -0.000560505 0.0103703)
(-0.000245605 -0.000568253 0.0103881)
(-0.000419274 -0.000585091 0.0104248)
(-0.000609376 -0.000609376 0.0104815)
(-0.000819968 -0.000651581 0.0105562)
(0.000898931 -0.000898931 0.0106182)
(0.000651581 -0.000819968 0.0105562)
(0.000441682 -0.000802348 0.0105062)
(0.000259342 -0.000781711 0.010472)
(8.49599e-05 -0.000772912 0.0104551)
(-8.49599e-05 -0.000772912 0.0104551)
(-0.000259342 -0.000781711 0.010472)
(-0.000441682 -0.000802348 0.0105062)
(-0.000651581 -0.000819968 0.0105562)
(-0.000898931 -0.000898931 0.0106182)
(0.000329044 0.000329044 0.0117607)
(0.000264508 0.000347726 0.0116398)
(0.000192505 0.000370663 0.0115439)
(0.000118097 0.000382998 0.0114786)
(3.94425e-05 0.000390161 0.0114463)
(-3.94424e-05 0.000390161 0.0114463)
(-0.000118097 0.000382998 0.0114786)
(-0.000192504 0.000370663 0.0115439)
(-0.000264508 0.000347727 0.0116398)
(-0.000329044 0.000329044 0.0117607)
(0.000347726 0.000264508 0.0116398)
(0.00028519 0.00028519 0.0114937)
(0.000211251 0.00030272 0.0113832)
(0.000129981 0.000313694 0.0113106)
(4.37466e-05 0.000319581 0.011275)
(-4.37466e-05 0.000319581 0.011275)
(-0.000129981 0.000313694 0.0113106)
(-0.000211251 0.00030272 0.0113832)
(-0.000285189 0.000285189 0.0114937)
(-0.000347727 0.000264508 0.0116398)
(0.000370663 0.000192505 0.0115439)
(0.00030272 0.000211251 0.0113832)
(0.000224748 0.000224748 0.0112662)
(0.000138185 0.00023302 0.011191)
(4.65716e-05 0.000237183 0.0111543)
(-4.65716e-05 0.000237183 0.0111543)
(-0.000138185 0.00023302 0.011191)
(-0.000224748 0.000224748 0.0112662)
(-0.00030272 0.000211251 0.0113832)
(-0.000370663 0.000192504 0.0115439)
(0.000382998 0.000118097 0.0114786)
(0.000313694 0.000129981 0.0113106)
(0.00023302 0.000138185 0.011191)
(0.000143217 0.000143217 0.0111148)
(4.82819e-05 0.000145694 0.0110778)
(-4.82818e-05 0.000145694 0.0110778)
(-0.000143217 0.000143217 0.0111148)
(-0.00023302 0.000138185 0.011191)
(-0.000313694 0.000129981 0.0113106)
(-0.000382998 0.000118097 0.0114786)
(0.000390161 3.94424e-05 0.0114463)
(0.000319581 4.37465e-05 0.011275)
(0.000237183 4.65716e-05 0.0111543)
(0.000145694 4.82819e-05 0.0110778)
(4.91091e-05 4.91091e-05 0.0110408)
(-4.91091e-05 4.91091e-05 0.0110408)
(-0.000145694 4.82819e-05 0.0110778)
(-0.000237183 4.65716e-05 0.0111543)
(-0.000319581 4.37466e-05 0.011275)
(-0.000390161 3.94425e-05 0.0114463)
(0.000390161 -3.94425e-05 0.0114463)
(0.000319581 -4.37466e-05 0.011275)
(0.000237183 -4.65716e-05 0.0111543)
(0.000145694 -4.82818e-05 0.0110778)
(4.91091e-05 -4.91091e-05 0.0110408)
(-4.91091e-05 -4.91091e-05 0.0110408)
(-0.000145694 -4.82819e-05 0.0110778)
(-0.000237183 -4.65716e-05 0.0111543)
(-0.000319581 -4.37465e-05 0.011275)
(-0.000390161 -3.94424e-05 0.0114463)
(0.000382998 -0.000118097 0.0114786)
(0.000313694 -0.000129981 0.0113106)
(0.00023302 -0.000138185 0.011191)
(0.000143217 -0.000143217 0.0111148)
(4.82819e-05 -0.000145694 0.0110778)
(-4.82819e-05 -0.000145694 0.0110778)
(-0.000143217 -0.000143217 0.0111148)
(-0.00023302 -0.000138185 0.011191)
(-0.000313694 -0.000129981 0.0113106)
(-0.000382998 -0.000118097 0.0114786)
(0.000370663 -0.000192504 0.0115439)
(0.00030272 -0.000211251 0.0113832)
(0.000224748 -0.000224748 0.0112662)
(0.000138185 -0.00023302 0.011191)
(4.65716e-05 -0.000237183 0.0111543)
(-4.65716e-05 -0.000237183 0.0111543)
(-0.000138185 -0.00023302 0.011191)
(-0.000224748 -0.000224748 0.0112662)
(-0.00030272 -0.000211251 0.0113832)
(-0.000370663 -0.000192505 0.0115439)
(0.000347726 -0.000264508 0.0116398)
(0.000285189 -0.000285189 0.0114937)
(0.000211251 -0.00030272 0.0113832)
(0.000129981 -0.000313694 0.0113106)
(4.37466e-05 -0.000319581 0.011275)
(-4.37465e-05 -0.000319581 0.011275)
(-0.000129981 -0.000313694 0.0113106)
(-0.000211251 -0.00030272 0.0113832)
(-0.00028519 -0.00028519 0.0114937)
(-0.000347726 -0.000264508 0.0116398)
(0.000329044 -0.000329044 0.0117607)
(0.000264508 -0.000347726 0.0116398)
(0.000192504 -0.000370663 0.0115439)
(0.000118096 -0.000382998 0.0114786)
(3.94425e-05 -0.000390161 0.0114463)
(-3.94425e-05 -0.000390161 0.0114463)
(-0.000118097 -0.000382998 0.0114786)
(-0.000192505 -0.000370663 0.0115439)
(-0.000264508 -0.000347726 0.0116398)
(-0.000329044 -0.000329044 0.0117607)
(0.000163906 0.000163906 0.011648)
(0.000135753 0.000177433 0.0116253)
(0.000102115 0.000191478 0.0115972)
(6.35907e-05 0.000199568 0.0115755)
(2.14106e-05 0.000203978 0.0115644)
(-2.14106e-05 0.000203978 0.0115644)
(-6.35906e-05 0.000199568 0.0115755)
(-0.000102115 0.000191478 0.0115972)
(-0.000135753 0.000177433 0.0116253)
(-0.000163906 0.000163906 0.011648)
(0.000177433 0.000135753 0.0116253)
(0.000151214 0.000151214 0.0115785)
(0.000114903 0.000162814 0.0115376)
(7.16311e-05 0.000170034 0.0115091)
(2.42562e-05 0.000173775 0.0114948)
(-2.42562e-05 0.000173775 0.0114948)
(-7.16311e-05 0.000170034 0.0115091)
(-0.000114903 0.000162814 0.0115376)
(-0.000151214 0.000151214 0.0115785)
(-0.000177433 0.000135753 0.0116253)
(0.000191478 0.000102115 0.0115972)
(0.000162814 0.000114903 0.0115376)
(0.0001237 0.0001237 0.0114897)
(7.7019e-05 0.000129103 0.0114571)
(2.61023e-05 0.000131801 0.0114407)
(-2.61023e-05 0.000131801 0.0114407)
(-7.7019e-05 0.000129103 0.0114571)
(-0.0001237 0.0001237 0.0114897)
(-0.000162814 0.000114903 0.0115376)
(-0.000191478 0.000102115 0.0115972)
(0.000199568 6.35906e-05 0.0115755)
(0.000170034 7.16311e-05 0.0115091)
(0.000129103 7.7019e-05 0.0114571)
(8.03333e-05 8.03333e-05 0.0114219)
(2.72369e-05 8.19841e-05 0.0114042)
(-2.72369e-05 8.19841e-05 0.0114042)
(-8.03333e-05 8.03333e-05 0.0114219)
(-0.000129103 7.7019e-05 0.0114571)
(-0.000170034 7.16311e-05 0.0115091)
(-0.000199568 6.35906e-05 0.0115755)
(0.000203978 2.14106e-05 0.0115644)
(0.000173775 2.42562e-05 0.0114948)
(0.000131801 2.61024e-05 0.0114407)
(8.19841e-05 2.72369e-05 0.0114042)
(2.78017e-05 2.78017e-05 0.0113859)
(-2.78017e-05 2.78017e-05 0.0113859)
(-8.19841e-05 2.72369e-05 0.0114042)
(-0.000131801 2.61023e-05 0.0114407)
(-0.000173775 2.42562e-05 0.0114948)
(-0.000203978 2.14106e-05 0.0115644)
(0.000203978 -2.14106e-05 0.0115644)
(0.000173775 -2.42562e-05 0.0114948)
(0.000131801 -2.61023e-05 0.0114407)
(8.19841e-05 -2.72369e-05 0.0114042)
(2.78017e-05 -2.78017e-05 0.0113859)
(-2.78017e-05 -2.78017e-05 0.0113859)
(-8.19841e-05 -2.72369e-05 0.0114042)
(-0.000131801 -2.61023e-05 0.0114407)
(-0.000173775 -2.42562e-05 0.0114948)
(-0.000203978 -2.14106e-05 0.0115644)
(0.000199568 -6.35906e-05 0.0115755)
(0.000170034 -7.16311e-05 0.0115091)
(0.000129103 -7.7019e-05 0.0114571)
(8.03333e-05 -8.03333e-05 0.0114219)
(2.72369e-05 -8.19841e-05 0.0114042)
(-2.72369e-05 -8.19841e-05 0.0114042)
(-8.03333e-05 -8.03333e-05 0.0114219)
(-0.000129103 -7.7019e-05 0.0114571)
(-0.000170034 -7.16311e-05 0.0115091)
(-0.000199568 -6.35907e-05 0.0115755)
(0.000191478 -0.000102115 0.0115972)
(0.000162814 -0.000114903 0.0115376)
(0.0001237 -0.0001237 0.0114897)
(7.7019e-05 -0.000129103 0.0114571)
(2.61023e-05 -0.000131801 0.0114407)
(-2.61023e-05 -0.000131801 0.0114407)
(-7.7019e-05 -0.000129103 0.0114571)
(-0.0001237 -0.0001237 0.0114897)
(-0.000162814 -0.000114904 0.0115376)
(-0.000191478 -0.000102115 0.0115972)
(0.000177433 -0.000135753 0.0116253)
(0.000151214 -0.000151214 0.0115785)
(0.000114903 -0.000162814 0.0115376)
(7.16311e-05 -0.000170034 0.0115091)
(2.42562e-05 -0.000173775 0.0114948)
(-2.42562e-05 -0.000173775 0.0114948)
(-7.16311e-05 -0.000170034 0.0115091)
(-0.000114904 -0.000162814 0.0115376)
(-0.000151214 -0.000151214 0.0115785)
(-0.000177433 -0.000135753 0.0116253)
(0.000163906 -0.000163906 0.011648)
(0.000135753 -0.000177433 0.0116253)
(0.000102115 -0.000191478 0.0115972)
(6.35907e-05 -0.000199568 0.0115755)
(2.14106e-05 -0.000203978 0.0115644)
(-2.14106e-05 -0.000203978 0.0115644)
(-6.35907e-05 -0.000199568 0.0115755)
(-0.000102115 -0.000191478 0.0115972)
(-0.000135753 -0.000177433 0.0116253)
(-0.000163906 -0.000163906 0.011648)
(5.60004e-05 5.60004e-05 0.0116756)
(4.88838e-05 6.55463e-05 0.0116778)
(3.86093e-05 7.42065e-05 0.011668)
(2.46973e-05 7.96724e-05 0.0116586)
(8.42465e-06 8.25739e-05 0.0116535)
(-8.42464e-06 8.25739e-05 0.0116535)
(-2.46973e-05 7.96724e-05 0.0116586)
(-3.86093e-05 7.42066e-05 0.011668)
(-4.88838e-05 6.55463e-05 0.0116778)
(-5.60004e-05 5.60003e-05 0.0116756)
(6.55463e-05 4.88838e-05 0.0116778)
(5.91772e-05 5.91773e-05 0.0116606)
(4.70208e-05 6.7118e-05 0.0116417)
(3.01212e-05 7.23416e-05 0.0116277)
(1.03365e-05 7.50395e-05 0.0116206)
(-1.03365e-05 7.50396e-05 0.0116206)
(-3.01212e-05 7.23416e-05 0.0116277)
(-4.70208e-05 6.7118e-05 0.0116417)
(-5.91772e-05 5.91772e-05 0.0116606)
(-6.55462e-05 4.88838e-05 0.0116778)
(7.42065e-05 3.86093e-05 0.011668)
(6.7118e-05 4.70208e-05 0.0116417)
(5.32997e-05 5.32997e-05 0.0116182)
(3.40905e-05 5.7393e-05 0.0116018)
(1.17047e-05 5.94578e-05 0.0115934)
(-1.17046e-05 5.94578e-05 0.0115934)
(-3.40904e-05 5.7393e-05 0.0116018)
(-5.32997e-05 5.32997e-05 0.0116182)
(-6.7118e-05 4.70208e-05 0.0116417)
(-7.42065e-05 3.86093e-05 0.011668)
(7.96724e-05 2.46973e-05 0.0116586)
(7.23416e-05 3.01212e-05 0.0116277)
(5.7393e-05 3.40905e-05 0.0116018)
(3.66744e-05 3.66744e-05 0.0115837)
(1.25929e-05 3.79713e-05 0.0115745)
(-1.25928e-05 3.79713e-05 0.0115745)
(-3.66744e-05 3.66744e-05 0.0115837)
(-5.7393e-05 3.40905e-05 0.0116018)
(-7.23416e-05 3.01212e-05 0.0116277)
(-7.96724e-05 2.46973e-05 0.0116586)
(8.25739e-05 8.42464e-06 0.0116535)
(7.50395e-05 1.03365e-05 0.0116206)
(5.94578e-05 1.17047e-05 0.0115934)
(3.79713e-05 1.25929e-05 0.0115745)
(1.30369e-05 1.30369e-05 0.0115649)
(-1.30368e-05 1.30369e-05 0.0115649)
(-3.79712e-05 1.25928e-05 0.0115745)
(-5.94578e-05 1.17047e-05 0.0115934)
(-7.50395e-05 1.03365e-05 0.0116206)
(-8.25739e-05 8.42468e-06 0.0116535)
(8.25739e-05 -8.42464e-06 0.0116535)
(7.50396e-05 -1.03365e-05 0.0116206)
(5.94578e-05 -1.17046e-05 0.0115934)
(3.79713e-05 -1.25928e-05 0.0115745)
(1.30369e-05 -1.30368e-05 0.0115649)
(-1.30368e-05 -1.30368e-05 0.0115649)
(-3.79712e-05 -1.25928e-05 0.0115745)
(-5.94578e-05 -1.17046e-05 0.0115934)
(-7.50395e-05 -1.03365e-05 0.0116206)
(-8.25739e-05 -8.42465e-06 0.0116535)
(7.96724e-05 -2.46973e-05 0.0116586)
(7.23416e-05 -3.01212e-05 0.0116277)
(5.7393e-05 -3.40904e-05 0.0116018)
(3.66744e-05 -3.66744e-05 0.0115837)
(1.25928e-05 -3.79712e-05 0.0115745)
(-1.25928e-05 -3.79712e-05 0.0115745)
(-3.66744e-05 -3.66744e-05 0.0115837)
(-5.7393e-05 -3.40904e-05 0.0116018)
(-7.23416e-05 -3.01212e-05 0.0116277)
(-7.96724e-05 -2.46973e-05 0.0116586)
(7.42065e-05 -3.86093e-05 0.011668)
(6.7118e-05 -4.70208e-05 0.0116417)
(5.32997e-05 -5.32997e-05 0.0116182)
(3.40905e-05 -5.7393e-05 0.0116018)
(1.17047e-05 -5.94578e-05 0.0115934)
(-1.17046e-05 -5.94578e-05 0.0115934)
(-3.40904e-05 -5.7393e-05 0.0116018)
(-5.32997e-05 -5.32997e-05 0.0116182)
(-6.7118e-05 -4.70209e-05 0.0116417)
(-7.42065e-05 -3.86093e-05 0.011668)
(6.55463e-05 -4.88838e-05 0.0116778)
(5.91772e-05 -5.91772e-05 0.0116606)
(4.70208e-05 -6.7118e-05 0.0116417)
(3.01212e-05 -7.23416e-05 0.0116277)
(1.03365e-05 -7.50395e-05 0.0116206)
(-1.03365e-05 -7.50395e-05 0.0116206)
(-3.01212e-05 -7.23416e-05 0.0116277)
(-4.70209e-05 -6.7118e-05 0.0116417)
(-5.91773e-05 -5.91773e-05 0.0116606)
(-6.55462e-05 -4.88838e-05 0.0116778)
(5.60004e-05 -5.60004e-05 0.0116756)
(4.88838e-05 -6.55462e-05 0.0116778)
(3.86093e-05 -7.42065e-05 0.011668)
(2.46973e-05 -7.96724e-05 0.0116586)
(8.42465e-06 -8.25739e-05 0.0116535)
(-8.42464e-06 -8.25739e-05 0.0116535)
(-2.46973e-05 -7.96724e-05 0.0116586)
(-3.86093e-05 -7.42065e-05 0.011668)
(-4.88838e-05 -6.55462e-05 0.0116778)
(-5.60003e-05 -5.60003e-05 0.0116756)
(1.84852e-05 1.84852e-05 0.01167)
(1.64928e-05 2.24092e-05 0.011685)
(1.33534e-05 2.60082e-05 0.0116853)
(8.64737e-06 2.84259e-05 0.0116829)
(2.9692e-06 2.97244e-05 0.0116813)
(-2.96923e-06 2.97244e-05 0.0116813)
(-8.64737e-06 2.84259e-05 0.0116829)
(-1.33534e-05 2.60083e-05 0.0116853)
(-1.64928e-05 2.24093e-05 0.011685)
(-1.84852e-05 1.84853e-05 0.01167)
(2.24092e-05 1.64928e-05 0.011685)
(2.09465e-05 2.09465e-05 0.0116836)
(1.71081e-05 2.45488e-05 0.011677)
(1.11462e-05 2.70444e-05 0.0116716)
(3.85804e-06 2.83579e-05 0.0116686)
(-3.85803e-06 2.8358e-05 0.0116686)
(-1.11461e-05 2.70444e-05 0.0116716)
(-1.7108e-05 2.45489e-05 0.011677)
(-2.09466e-05 2.09466e-05 0.0116836)
(-2.24092e-05 1.64929e-05 0.011685)
(2.60081e-05 1.33534e-05 0.0116853)
(2.45488e-05 1.71081e-05 0.011677)
(2.01144e-05 2.01144e-05 0.0116676)
(1.31191e-05 2.21861e-05 0.0116605)
(4.5485e-06 2.32585e-05 0.0116568)
(-4.54846e-06 2.32585e-05 0.0116568)
(-1.3119e-05 2.21861e-05 0.0116605)
(-2.01144e-05 2.01144e-05 0.0116676)
(-2.45488e-05 1.71081e-05 0.011677)
(-2.60082e-05 1.33534e-05 0.0116853)
(2.84259e-05 8.64735e-06 0.0116829)
(2.70443e-05 1.11462e-05 0.0116716)
(2.21861e-05 1.31191e-05 0.0116605)
(1.44794e-05 1.44794e-05 0.0116524)
(5.02394e-06 1.51812e-05 0.0116482)
(-5.02389e-06 1.51812e-05 0.0116482)
(-1.44793e-05 1.44794e-05 0.0116524)
(-2.21861e-05 1.31191e-05 0.0116605)
(-2.70444e-05 1.11461e-05 0.0116716)
(-2.84259e-05 8.64736e-06 0.0116829)
(2.97244e-05 2.9692e-06 0.0116813)
(2.83579e-05 3.85805e-06 0.0116686)
(2.32585e-05 4.54851e-06 0.0116568)
(1.51812e-05 5.02395e-06 0.0116482)
(5.26841e-06 5.26842e-06 0.0116437)
(-5.26837e-06 5.26841e-06 0.0116437)
(-1.51812e-05 5.02392e-06 0.0116482)
(-2.32585e-05 4.54849e-06 0.0116568)
(-2.83579e-05 3.85803e-06 0.0116686)
(-2.97244e-05 2.96923e-06 0.0116813)
(2.97244e-05 -2.96922e-06 0.0116813)
(2.8358e-05 -3.858e-06 0.0116686)
(2.32585e-05 -4.54845e-06 0.0116568)
(1.51812e-05 -5.02389e-06 0.0116482)
(5.2684e-06 -5.26837e-06 0.0116437)
(-5.26839e-06 -5.26838e-06 0.0116437)
(-1.51812e-05 -5.02392e-06 0.0116482)
(-2.32585e-05 -4.54849e-06 0.0116568)
(-2.83579e-05 -3.85804e-06 0.0116686)
(-2.97244e-05 -2.96922e-06 0.0116813)
(2.84259e-05 -8.64738e-06 0.0116829)
(2.70444e-05 -1.11461e-05 0.0116716)
(2.21861e-05 -1.3119e-05 0.0116605)
(1.44794e-05 -1.44793e-05 0.0116524)
(5.02391e-06 -1.51812e-05 0.0116482)
(-5.02392e-06 -1.51812e-05 0.0116482)
(-1.44794e-05 -1.44794e-05 0.0116524)
(-2.21861e-05 -1.31191e-05 0.0116605)
(-2.70443e-05 -1.11461e-05 0.0116716)
(-2.84259e-05 -8.64739e-06 0.0116829)
(2.60083e-05 -1.33534e-05 0.0116853)
(2.45489e-05 -1.7108e-05 0.011677)
(2.01144e-05 -2.01144e-05 0.0116676)
(1.3119e-05 -2.21861e-05 0.0116605)
(4.54848e-06 -2.32585e-05 0.0116568)
(-4.54849e-06 -2.32585e-05 0.0116568)
(-1.31191e-05 -2.21861e-05 0.0116605)
(-2.01144e-05 -2.01144e-05 0.0116676)
(-2.45489e-05 -1.71081e-05 0.011677)
(-2.60082e-05 -1.33534e-05 0.0116853)
(2.24093e-05 -1.64928e-05 0.011685)
(2.09466e-05 -2.09467e-05 0.0116836)
(1.71081e-05 -2.45489e-05 0.011677)
(1.11461e-05 -2.70444e-05 0.0116716)
(3.85803e-06 -2.83579e-05 0.0116686)
(-3.85804e-06 -2.83579e-05 0.0116686)
(-1.11461e-05 -2.70443e-05 0.0116716)
(-1.71081e-05 -2.45489e-05 0.011677)
(-2.09466e-05 -2.09466e-05 0.0116836)
(-2.24092e-05 -1.64928e-05 0.011685)
(1.84852e-05 -1.84852e-05 0.01167)
(1.64928e-05 -2.24093e-05 0.011685)
(1.33534e-05 -2.60083e-05 0.0116853)
(8.6474e-06 -2.84259e-05 0.0116829)
(2.96924e-06 -2.97244e-05 0.0116813)
(-2.96921e-06 -2.97244e-05 0.0116813)
(-8.64739e-06 -2.84259e-05 0.0116829)
(-1.33534e-05 -2.60082e-05 0.0116853)
(-1.64928e-05 -2.24092e-05 0.011685)
(-1.84852e-05 -1.84851e-05 0.01167)
(6.46444e-06 6.46446e-06 0.0116637)
(5.83484e-06 7.93704e-06 0.0116828)
(4.7922e-06 9.29838e-06 0.0116867)
(3.12334e-06 1.02355e-05 0.011687)
(1.07673e-06 1.074e-05 0.0116868)
(-1.07675e-06 1.074e-05 0.0116868)
(-3.12331e-06 1.02355e-05 0.011687)
(-4.79217e-06 9.29842e-06 0.0116867)
(-5.83482e-06 7.93706e-06 0.0116828)
(-6.46441e-06 6.46449e-06 0.0116637)
(7.93704e-06 5.83484e-06 0.0116828)
(7.56085e-06 7.56084e-06 0.0116874)
(6.26966e-06 8.98477e-06 0.0116859)
(4.12174e-06 9.99622e-06 0.011684)
(1.43348e-06 1.05338e-05 0.011683)
(-1.43349e-06 1.05339e-05 0.011683)
(-4.12173e-06 9.99625e-06 0.011684)
(-6.26964e-06 8.9848e-06 0.0116859)
(-7.56079e-06 7.56086e-06 0.0116874)
(-7.93701e-06 5.83485e-06 0.0116828)
(9.29839e-06 4.7922e-06 0.0116867)
(8.98478e-06 6.26966e-06 0.0116859)
(7.4916e-06 7.49159e-06 0.0116826)
(4.94062e-06 8.35878e-06 0.01168)
(1.72264e-06 8.81443e-06 0.0116785)
(-1.72261e-06 8.81444e-06 0.0116785)
(-4.94059e-06 8.35881e-06 0.01168)
(-7.49157e-06 7.49162e-06 0.0116826)
(-8.98476e-06 6.26968e-06 0.0116859)
(-9.29839e-06 4.79216e-06 0.0116867)
(1.02355e-05 3.12335e-06 0.011687)
(9.99622e-06 4.12176e-06 0.011684)
(8.35878e-06 4.94062e-06 0.01168)
(5.52335e-06 5.52334e-06 0.0116768)
(1.92848e-06 5.82912e-06 0.0116751)
(-1.92843e-06 5.82912e-06 0.0116751)
(-5.52332e-06 5.52335e-06 0.0116768)
(-8.35877e-06 4.94062e-06 0.01168)
(-9.99622e-06 4.12175e-06 0.011684)
(-1.02355e-05 3.12332e-06 0.011687)
(1.074e-05 1.07673e-06 0.0116868)
(1.05338e-05 1.43349e-06 0.011683)
(8.81442e-06 1.72264e-06 0.0116785)
(5.82912e-06 1.92847e-06 0.0116751)
(2.03625e-06 2.03625e-06 0.0116733)
(-2.03621e-06 2.03624e-06 0.0116733)
(-5.82909e-06 1.92847e-06 0.0116751)
(-8.8144e-06 1.72264e-06 0.0116785)
(-1.05338e-05 1.43349e-06 0.011683)
(-1.074e-05 1.07674e-06 0.0116868)
(1.074e-05 -1.07676e-06 0.0116868)
(1.05339e-05 -1.43348e-06 0.011683)
(8.81443e-06 -1.72261e-06 0.0116785)
(5.82912e-06 -1.92843e-06 0.0116751)
(2.03625e-06 -2.03621e-06 0.0116733)
(-2.03621e-06 -2.03621e-06 0.0116733)
(-5.82909e-06 -1.92844e-06 0.0116751)
(-8.8144e-06 -1.72262e-06 0.0116785)
(-1.05338e-05 -1.43348e-06 0.011683)
(-1.074e-05 -1.07675e-06 0.0116868)
(1.02355e-05 -3.12333e-06 0.011687)
(9.99626e-06 -4.12171e-06 0.011684)
(8.3588e-06 -4.94057e-06 0.01168)
(5.52335e-06 -5.52331e-06 0.0116768)
(1.92847e-06 -5.82909e-06 0.0116751)
(-1.92845e-06 -5.82909e-06 0.0116751)
(-5.52332e-06 -5.52331e-06 0.0116768)
(-8.35877e-06 -4.94058e-06 0.01168)
(-9.99624e-06 -4.12175e-06 0.011684)
(-1.02355e-05 -3.12335e-06 0.011687)
(9.29844e-06 -4.79213e-06 0.0116867)
(8.98482e-06 -6.26964e-06 0.0116859)
(7.4916e-06 -7.49155e-06 0.0116826)
(4.94061e-06 -8.35877e-06 0.01168)
(1.72264e-06 -8.81441e-06 0.0116785)
(-1.72262e-06 -8.8144e-06 0.0116785)
(-4.94059e-06 -8.35876e-06 0.01168)
(-7.4916e-06 -7.49158e-06 0.0116826)
(-8.98482e-06 -6.26972e-06 0.0116859)
(-9.29839e-06 -4.79218e-06 0.0116867)
(7.93709e-06 -5.83482e-06 0.0116828)
(7.56085e-06 -7.56084e-06 0.0116874)
(6.26966e-06 -8.98477e-06 0.0116859)
(4.12172e-06 -9.99623e-06 0.011684)
(1.43349e-06 -1.05338e-05 0.011683)
(-1.43347e-06 -1.05338e-05 0.011683)
(-4.12174e-06 -9.99624e-06 0.011684)
(-6.26973e-06 -8.98482e-06 0.0116859)
(-7.56086e-06 -7.56086e-06 0.0116874)
(-7.93699e-06 -5.83481e-06 0.0116828)
(6.46449e-06 -6.46444e-06 0.0116637)
(5.83485e-06 -7.93704e-06 0.0116828)
(4.79218e-06 -9.2984e-06 0.0116867)
(3.12333e-06 -1.02355e-05 0.011687)
(1.07675e-06 -1.074e-05 0.0116868)
(-1.07675e-06 -1.074e-05 0.0116868)
(-3.12336e-06 -1.02355e-05 0.011687)
(-4.7922e-06 -9.29842e-06 0.0116867)
(-5.83481e-06 -7.937e-06 0.0116828)
(-6.46444e-06 -6.46441e-06 0.0116637)
(2.24956e-06 2.24952e-06 0.0116615)
(2.05546e-06 2.80932e-06 0.0116819)
(1.71045e-06 3.32629e-06 0.011687)
(1.12228e-06 3.68814e-06 0.0116882)
(3.88468e-07 3.88288e-06 0.0116884)
(-3.885e-07 3.88289e-06 0.0116884)
(-1.1223e-06 3.68818e-06 0.0116882)
(-1.71045e-06 3.32642e-06 0.011687)
(-2.05548e-06 2.80951e-06 0.0116819)
(-2.24954e-06 2.24964e-06 0.0116615)
(2.80931e-06 2.05547e-06 0.0116819)
(2.71858e-06 2.71857e-06 0.0116885)
(2.28395e-06 3.27411e-06 0.0116887)
(1.51347e-06 3.67493e-06 0.0116882)
(5.28584e-07 3.88903e-06 0.0116879)
(-5.28553e-07 3.88905e-06 0.0116879)
(-1.5134e-06 3.67499e-06 0.0116882)
(-2.28389e-06 3.27423e-06 0.0116887)
(-2.71865e-06 2.71874e-06 0.0116885)
(-2.80944e-06 2.05554e-06 0.0116819)
(3.32622e-06 1.71046e-06 0.011687)
(3.2741e-06 2.28394e-06 0.0116887)
(2.76862e-06 2.7686e-06 0.0116878)
(1.84208e-06 3.11854e-06 0.0116868)
(6.45165e-07 3.30387e-06 0.0116863)
(-6.45113e-07 3.30388e-06 0.0116863)
(-1.84199e-06 3.11855e-06 0.0116868)
(-2.76851e-06 2.76857e-06 0.0116878)
(-3.27417e-06 2.28394e-06 0.0116887)
(-3.32638e-06 1.71046e-06 0.011687)
(3.6881e-06 1.12228e-06 0.0116882)
(3.67492e-06 1.51351e-06 0.0116882)
(3.11855e-06 1.84209e-06 0.0116868)
(2.0802e-06 2.08021e-06 0.0116856)
(7.29738e-07 2.20629e-06 0.011685)
(-7.29688e-07 2.20629e-06 0.011685)
(-2.08015e-06 2.08019e-06 0.0116856)
(-3.11849e-06 1.84203e-06 0.0116868)
(-3.67495e-06 1.51342e-06 0.0116882)
(-3.68818e-06 1.1223e-06 0.0116882)
(3.88287e-06 3.88464e-07 0.0116884)
(3.88902e-06 5.28604e-07 0.0116879)
(3.30386e-06 6.45172e-07 0.0116863)
(2.20628e-06 7.29744e-07 0.011685)
(7.7445e-07 7.74457e-07 0.0116842)
(-7.74411e-07 7.74449e-07 0.0116842)
(-2.20625e-06 7.29721e-07 0.011685)
(-3.30383e-06 6.45138e-07 0.0116863)
(-3.88901e-06 5.28557e-07 0.0116879)
(-3.88289e-06 3.88499e-07 0.0116884)
(3.88288e-06 -3.88512e-07 0.0116884)
(3.88904e-06 -5.28555e-07 0.0116879)
(3.30387e-06 -6.45111e-07 0.0116863)
(2.20628e-06 -7.29686e-07 0.011685)
(7.74442e-07 -7.74408e-07 0.0116842)
(-7.74423e-07 -7.74418e-07 0.0116842)
(-2.20626e-06 -7.29711e-07 0.011685)
(-3.30384e-06 -6.45141e-07 0.0116863)
(-3.889e-06 -5.28583e-07 0.0116879)
(-3.88289e-06 -3.88489e-07 0.0116884)
(3.68818e-06 -1.12228e-06 0.0116882)
(3.67499e-06 -1.5134e-06 0.0116882)
(3.11854e-06 -1.842e-06 0.0116868)
(2.08019e-06 -2.08016e-06 0.0116856)
(7.29718e-07 -2.20625e-06 0.011685)
(-7.29714e-07 -2.20625e-06 0.011685)
(-2.08017e-06 -2.08017e-06 0.0116856)
(-3.11852e-06 -1.84204e-06 0.0116868)
(-3.67493e-06 -1.51346e-06 0.0116882)
(-3.68814e-06 -1.1223e-06 0.0116882)
(3.32641e-06 -1.71043e-06 0.011687)
(3.27421e-06 -2.2839e-06 0.0116887)
(2.76856e-06 -2.76853e-06 0.0116878)
(1.84203e-06 -3.11851e-06 0.0116868)
(6.45147e-07 -3.30383e-06 0.0116863)
(-6.45143e-07 -3.30384e-06 0.0116863)
(-1.84204e-06 -3.11853e-06 0.0116868)
(-2.76858e-06 -2.76859e-06 0.0116878)
(-3.27415e-06 -2.28398e-06 0.0116887)
(-3.3263e-06 -1.71046e-06 0.011687)
(2.80951e-06 -2.0555e-06 0.0116819)
(2.7187e-06 -2.71871e-06 0.0116885)
(2.28393e-06 -3.2742e-06 0.0116887)
(1.51343e-06 -3.67494e-06 0.0116882)
(5.2857e-07 -3.889e-06 0.0116879)
(-5.28595e-07 -3.889e-06 0.0116879)
(-1.51347e-06 -3.67493e-06 0.0116882)
(-2.28397e-06 -3.27413e-06 0.0116887)
(-2.71861e-06 -2.71861e-06 0.0116885)
(-2.80934e-06 -2.05548e-06 0.0116819)
(2.24961e-06 -2.24955e-06 0.0116615)
(2.0555e-06 -2.80943e-06 0.0116819)
(1.7105e-06 -3.32637e-06 0.011687)
(1.12235e-06 -3.68816e-06 0.0116882)
(3.88507e-07 -3.88289e-06 0.0116884)
(-3.88495e-07 -3.88288e-06 0.0116884)
(-1.12229e-06 -3.68813e-06 0.0116882)
(-1.71046e-06 -3.3263e-06 0.011687)
(-2.0555e-06 -2.80933e-06 0.0116819)
(-2.24955e-06 -2.24953e-06 0.0116615)
(7.86179e-07 7.86151e-07 0.0116608)
(7.23439e-07 9.92359e-07 0.0116816)
(6.06545e-07 1.18331e-06 0.0116871)
(3.99486e-07 1.31896e-06 0.0116886)
(1.38616e-07 1.39215e-06 0.011689)
(-1.3863e-07 1.39214e-06 0.011689)
(-3.9945e-07 1.31894e-06 0.0116886)
(-6.06501e-07 1.18329e-06 0.0116871)
(-7.23403e-07 9.9237e-07 0.0116816)
(-7.86125e-07 7.86223e-07 0.0116608)
(9.92345e-07 7.23413e-07 0.0116816)
(9.70138e-07 9.70123e-07 0.0116889)
(8.22165e-07 1.1799e-06 0.0116898)
(5.47796e-07 1.33335e-06 0.0116897)
(1.91886e-07 1.41578e-06 0.0116896)
(-1.91893e-07 1.41579e-06 0.0116896)
(-5.478e-07 1.33336e-06 0.0116897)
(-8.22138e-07 1.17988e-06 0.0116898)
(-9.70075e-07 9.70129e-07 0.0116889)
(-9.92319e-07 7.23431e-07 0.0116816)
(1.18329e-06 6.06534e-07 0.0116871)
(1.17991e-06 8.22165e-07 0.0116898)
(1.00794e-06 1.00793e-06 0.0116896)
(6.75062e-07 1.14412e-06 0.0116893)
(2.37241e-07 1.21681e-06 0.0116891)
(-2.37232e-07 1.21681e-06 0.0116891)
(-6.75052e-07 1.14414e-06 0.0116893)
(-1.0079e-06 1.00794e-06 0.0116896)
(-1.17986e-06 8.22171e-07 0.0116898)
(-1.18329e-06 6.06521e-07 0.0116871)
(1.31897e-06 3.99495e-07 0.0116886)
(1.33337e-06 5.47806e-07 0.0116897)
(1.14412e-06 6.7506e-07 0.0116893)
(7.68783e-07 7.68784e-07 0.0116889)
(2.70696e-07 8.18826e-07 0.0116886)
(-2.70677e-07 8.18829e-07 0.0116886)
(-7.68774e-07 7.68799e-07 0.0116889)
(-1.14411e-06 6.75072e-07 0.0116893)
(-1.33333e-06 5.47796e-07 0.0116897)
(-1.31895e-06 3.99478e-07 0.0116886)
(1.39216e-06 1.38622e-07 0.011689)
(1.41579e-06 1.91878e-07 0.0116896)
(1.2168e-06 2.37232e-07 0.0116891)
(8.18827e-07 2.70694e-07 0.0116886)
(2.88543e-07 2.88542e-07 0.0116883)
(-2.88515e-07 2.88543e-07 0.0116883)
(-8.18807e-07 2.70704e-07 0.0116886)
(-1.21678e-06 2.37254e-07 0.0116891)
(-1.41576e-06 1.91891e-07 0.0116896)
(-1.39214e-06 1.38623e-07 0.011689)
(1.39215e-06 -1.38637e-07 0.011689)
(1.41579e-06 -1.91886e-07 0.0116896)
(1.21681e-06 -2.37227e-07 0.0116891)
(8.18835e-07 -2.70674e-07 0.0116886)
(2.88545e-07 -2.88511e-07 0.0116883)
(-2.88515e-07 -2.88513e-07 0.0116883)
(-8.18805e-07 -2.70676e-07 0.0116886)
(-1.21679e-06 -2.37229e-07 0.0116891)
(-1.41577e-06 -1.91896e-07 0.0116896)
(-1.39214e-06 -1.38634e-07 0.011689)
(1.31897e-06 -3.99459e-07 0.0116886)
(1.33337e-06 -5.4777e-07 0.0116897)
(1.14414e-06 -6.75041e-07 0.0116893)
(7.68799e-07 -7.68767e-07 0.0116889)
(2.70704e-07 -8.18798e-07 0.0116886)
(-2.7068e-07 -8.18804e-07 0.0116886)
(-7.68779e-07 -7.68778e-07 0.0116889)
(-1.14413e-06 -6.75056e-07 0.0116893)
(-1.33334e-06 -5.47797e-07 0.0116897)
(-1.31895e-06 -3.99457e-07 0.0116886)
(1.18332e-06 -6.06488e-07 0.0116871)
(1.1799e-06 -8.22151e-07 0.0116898)
(1.00793e-06 -1.00792e-06 0.0116896)
(6.75078e-07 -1.1441e-06 0.0116893)
(2.37251e-07 -1.21678e-06 0.0116891)
(-2.37239e-07 -1.21679e-06 0.0116891)
(-6.75058e-07 -1.14412e-06 0.0116893)
(-1.00792e-06 -1.00791e-06 0.0116896)
(-1.17986e-06 -8.22142e-07 0.0116898)
(-1.1833e-06 -6.06511e-07 0.0116871)
(9.92337e-07 -7.23378e-07 0.0116816)
(9.70104e-07 -9.70087e-07 0.0116889)
(8.22178e-07 -1.17984e-06 0.0116898)
(5.47821e-07 -1.33331e-06 0.0116897)
(1.91888e-07 -1.41575e-06 0.0116896)
(-1.91902e-07 -1.41576e-06 0.0116896)
(-5.4779e-07 -1.33333e-06 0.0116897)
(-8.22146e-07 -1.17987e-06 0.0116898)
(-9.70103e-07 -9.7011e-07 0.0116889)
(-9.92356e-07 -7.23457e-07 0.0116816)
(7.86157e-07 -7.86108e-07 0.0116608)
(7.2343e-07 -9.92264e-07 0.0116816)
(6.06538e-07 -1.18324e-06 0.0116871)
(3.99467e-07 -1.31893e-06 0.0116886)