/*--------------------------------*- C++ -*----------------------------------*\
| =========                 |                                                 |
| \\      /  F ield         | OpenFOAM: The Open Source CFD Toolbox           |
|  \\    /   O peration     | Version:  2412                                  |
|   \\  /    A nd           | Website:  www.openfoam.com                      |
|    \\/     M anipulation  |                                                 |
\*---------------------------------------------------------------------------*/
FoamFile
{
    version     2.0;
    format      ascii;
    arch        "LSB;label=32;scalar=64";
    class       surfaceScalarField;
    location    "2.5";
    object      phi;
}
// * * * * * * * * * * * * * * * * * * * * * * * * * * * * * * * * * * * * * //

dimensions      [0 3 -1 0 0 0 0];

oriented        oriented;

internalField   nonuniform List<scalar> 
43700
(
1.56741e-07
1.56741e-07
5.41668e-07
-1.92566e-07
-1.92566e-07
1.1483e-07
1.37508e-07
5.824e-07
-1.68613e-07
7.58072e-08
1.26218e-07
6.12059e-07
-1.59824e-07
3.75559e-08
1.18776e-07
6.31517e-07
-1.5233e-07
-1.08492e-15
1.15267e-07
6.41209e-07
-1.48992e-07
-3.75559e-08
1.15267e-07
6.41209e-07
-1.48992e-07
-7.58072e-08
1.18776e-07
6.31517e-07
-1.5233e-07
-1.1483e-07
1.26218e-07
6.12059e-07
-1.59824e-07
-1.56741e-07
1.37508e-07
5.824e-07
-1.68613e-07
1.56741e-07
5.41668e-07
-1.92566e-07
-1.92566e-07
1.37508e-07
1.1483e-07
5.824e-07
-1.68613e-07
1.02068e-07
1.02068e-07
6.16722e-07
6.72894e-08
9.28965e-08
6.41791e-07
3.33421e-08
8.68345e-08
6.58385e-07
-1.44562e-15
8.39027e-08
6.66679e-07
-3.33421e-08
8.39027e-08
6.66679e-07
-6.72894e-08
8.68345e-08
6.58385e-07
-1.02068e-07
9.28965e-08
6.41791e-07
-1.37508e-07
1.02068e-07
6.16722e-07
1.1483e-07
5.824e-07
-1.68613e-07
1.26218e-07
7.58072e-08
6.12059e-07
-1.59824e-07
9.28965e-08
6.72894e-08
6.41791e-07
6.09346e-08
6.09346e-08
6.63797e-07
3.01304e-08
5.67206e-08
6.78481e-07
3.13e-16
5.46656e-08
6.85846e-07
-3.01304e-08
5.46656e-08
6.85846e-07
-6.09346e-08
5.67206e-08
6.78481e-07
-9.28965e-08
6.09346e-08
6.63797e-07
-1.26218e-07
6.72894e-08
6.41791e-07
7.58072e-08
6.12059e-07
-1.59824e-07
1.18776e-07
3.75559e-08
6.31517e-07
-1.5233e-07
8.68345e-08
3.33421e-08
6.58385e-07
5.67206e-08
3.01304e-08
6.78481e-07
2.79859e-08
2.79859e-08
6.91972e-07
1.07178e-15
2.69355e-08
6.98758e-07
-2.79859e-08
2.69355e-08
6.98758e-07
-5.67206e-08
2.79859e-08
6.91972e-07
-8.68345e-08
3.01304e-08
6.78481e-07
-1.18776e-07
3.33421e-08
6.58385e-07
3.75559e-08
6.31517e-07
-1.5233e-07
1.15267e-07
-2.54754e-15
6.41209e-07
-1.48992e-07
8.39027e-08
-1.51252e-15
6.66679e-07
5.46656e-08
7.96923e-16
6.85846e-07
2.69355e-08
1.76637e-15
6.98758e-07
1.41168e-15
1.87526e-15
7.05264e-07
-2.69355e-08
1.23685e-15
7.05264e-07
-5.46656e-08
1.36581e-15
6.98758e-07
-8.39027e-08
1.73339e-15
6.85846e-07
-1.15267e-07
3.81718e-15
6.66679e-07
3.63078e-15
6.41209e-07
-1.48992e-07
1.15267e-07
-3.75559e-08
6.41209e-07
-1.48992e-07
8.39027e-08
-3.33421e-08
6.66679e-07
5.46656e-08
-3.01304e-08
6.85846e-07
2.69355e-08
-2.79859e-08
6.98758e-07
8.66379e-16
-2.69355e-08
7.05264e-07
-2.69355e-08
-2.69355e-08
7.05264e-07
-5.46656e-08
-2.79859e-08
6.98758e-07
-8.39027e-08
-3.01304e-08
6.85846e-07
-1.15267e-07
-3.33421e-08
6.66679e-07
-3.75559e-08
6.41209e-07
-1.48992e-07
1.18776e-07
-7.58072e-08
6.31517e-07
-1.5233e-07
8.68345e-08
-6.72894e-08
6.58385e-07
5.67206e-08
-6.09346e-08
6.78481e-07
2.79859e-08
-5.67206e-08
6.91972e-07
4.40342e-16
-5.46656e-08
6.98758e-07
-2.79859e-08
-5.46656e-08
6.98758e-07
-5.67206e-08
-5.67206e-08
6.91972e-07
-8.68345e-08
-6.09346e-08
6.78481e-07
-1.18776e-07
-6.72894e-08
6.58385e-07
-7.58072e-08
6.31517e-07
-1.5233e-07
1.26218e-07
-1.1483e-07
6.12059e-07
-1.59824e-07
9.28965e-08
-1.02068e-07
6.41791e-07
6.09346e-08
-9.28965e-08
6.63797e-07
3.01304e-08
-8.68345e-08
6.78481e-07
1.01299e-15
-8.39027e-08
6.85846e-07
-3.01304e-08
-8.39027e-08
6.85846e-07
-6.09346e-08
-8.68345e-08
6.78481e-07
-9.28965e-08
-9.28965e-08
6.63797e-07
-1.26218e-07
-1.02068e-07
6.41791e-07
-1.1483e-07
6.12059e-07
-1.59824e-07
1.37508e-07
-1.56741e-07
5.824e-07
-1.68613e-07
1.02068e-07
-1.37508e-07
6.16722e-07
6.72894e-08
-1.26218e-07
6.41791e-07
3.33421e-08
-1.18776e-07
6.58385e-07
3.35352e-15
-1.15267e-07
6.66679e-07
-3.33421e-08
-1.15267e-07
6.66679e-07
-6.72894e-08
-1.18776e-07
6.58385e-07
-1.02068e-07
-1.26218e-07
6.41791e-07
-1.37508e-07
-1.37508e-07
6.16722e-07
-1.56741e-07
5.824e-07
-1.68613e-07
1.56741e-07
5.41668e-07
-1.92566e-07
-1.92566e-07
1.1483e-07
5.824e-07
-1.68613e-07
7.58072e-08
6.12059e-07
-1.59824e-07
3.75559e-08
6.31517e-07
-1.5233e-07
2.95312e-15
6.41209e-07
-1.48992e-07
-3.75559e-08
6.41209e-07
-1.48992e-07
-7.58072e-08
6.31517e-07
-1.5233e-07
-1.1483e-07
6.12059e-07
-1.59824e-07
-1.56741e-07
5.824e-07
-1.68613e-07
5.41668e-07
-1.92566e-07
-1.92566e-07
6.69483e-08
6.69482e-08
5.61382e-07
-7.6805e-08
-7.6805e-08
5.29744e-08
6.63527e-08
6.05679e-07
-7.56573e-08
3.6739e-08
6.62601e-08
6.37949e-07
-7.59149e-08
1.87525e-08
6.59298e-08
6.59165e-07
-7.55908e-08
1.33932e-15
6.58478e-08
6.6975e-07
-7.56366e-08
-1.87525e-08
6.58478e-08
6.6975e-07
-7.56366e-08
-3.6739e-08
6.59298e-08
6.59165e-07
-7.55908e-08
-5.29744e-08
6.62601e-08
6.37949e-07
-7.59149e-08
-6.69482e-08
6.63527e-08
6.05679e-07
-7.56573e-08
6.69483e-08
5.61382e-07
-7.6805e-08
-7.6805e-08
6.63527e-08
5.29744e-08
6.05679e-07
-7.56573e-08
5.30172e-08
5.30172e-08
6.43393e-07
3.69699e-08
5.29972e-08
6.71101e-07
1.89584e-08
5.28059e-08
6.89521e-07
-1.40151e-16
5.27297e-08
6.98756e-07
-1.89584e-08
5.27297e-08
6.98756e-07
-3.69699e-08
5.28058e-08
6.89521e-07
-5.30172e-08
5.29972e-08
6.71101e-07
-6.63527e-08
5.30172e-08
6.43393e-07
5.29744e-08
6.05679e-07
-7.56573e-08
6.62601e-08
3.6739e-08
6.37949e-07
-7.59149e-08
5.29972e-08
3.69699e-08
6.71101e-07
3.69922e-08
3.69922e-08
6.95807e-07
1.90007e-08
3.6895e-08
7.12383e-07
1.16875e-15
3.68449e-08
7.20731e-07
-1.90006e-08
3.68449e-08
7.20731e-07
-3.69922e-08
3.6895e-08
7.12383e-07
-5.29972e-08
3.69922e-08
6.95807e-07
-6.62601e-08
3.69699e-08
6.71101e-07
3.6739e-08
6.37949e-07
-7.59149e-08
6.59298e-08
1.87525e-08
6.59165e-07
-7.55908e-08
5.28059e-08
1.89584e-08
6.89521e-07
3.6895e-08
1.90007e-08
7.12383e-07
1.89691e-08
1.89691e-08
7.27824e-07
2.73542e-15
1.89478e-08
7.35624e-07
-1.89691e-08
1.89478e-08
7.35624e-07
-3.6895e-08
1.89691e-08
7.27824e-07
-5.28058e-08
1.90007e-08
7.12383e-07
-6.59298e-08
1.89584e-08
6.89521e-07
1.87525e-08
6.59165e-07
-7.55908e-08
6.58478e-08
-1.66894e-15
6.6975e-07
-7.56366e-08
5.27297e-08
-9.66807e-16
6.98756e-07
3.68449e-08
2.2261e-15
7.20731e-07
1.89478e-08
3.7835e-15
7.35624e-07
2.73679e-15
3.15876e-15
7.43159e-07
-1.89478e-08
2.23992e-15
7.43159e-07
-3.68449e-08
1.21285e-15
7.35624e-07
-5.27297e-08
2.00898e-15
7.20731e-07
-6.58478e-08
5.92841e-15
6.98756e-07
5.25181e-15
6.6975e-07
-7.56366e-08
6.58478e-08
-1.87525e-08
6.6975e-07
-7.56366e-08
5.27297e-08
-1.89584e-08
6.98756e-07
3.68449e-08
-1.90006e-08
7.20731e-07
1.89478e-08
-1.89691e-08
7.35624e-07
1.61773e-15
-1.89478e-08
7.43159e-07
-1.89478e-08
-1.89478e-08
7.43159e-07
-3.68449e-08
-1.89691e-08
7.35624e-07
-5.27297e-08
-1.90006e-08
7.20731e-07
-6.58478e-08
-1.89584e-08
6.98756e-07
-1.87525e-08
6.6975e-07
-7.56366e-08
6.59298e-08
-3.6739e-08
6.59165e-07
-7.55908e-08
5.28058e-08
-3.69699e-08
6.89521e-07
3.6895e-08
-3.69922e-08
7.12383e-07
1.89691e-08
-3.6895e-08
7.27824e-07
5.11624e-16
-3.68449e-08
7.35624e-07
-1.89691e-08
-3.68449e-08
7.35624e-07
-3.6895e-08
-3.6895e-08
7.27824e-07
-5.28058e-08
-3.69922e-08
7.12383e-07
-6.59298e-08
-3.69699e-08
6.89521e-07
-3.6739e-08
6.59165e-07
-7.55908e-08
6.62601e-08
-5.29744e-08
6.37949e-07
-7.59149e-08
5.29972e-08
-5.30172e-08
6.71101e-07
3.69922e-08
-5.29972e-08
6.95807e-07
1.90007e-08
-5.28058e-08
7.12383e-07
1.9035e-15
-5.27297e-08
7.20731e-07
-1.90006e-08
-5.27297e-08
7.20731e-07
-3.69922e-08
-5.28058e-08
7.12383e-07
-5.29971e-08
-5.29972e-08
6.95807e-07
-6.62601e-08
-5.30172e-08
6.71101e-07
-5.29744e-08
6.37949e-07
-7.59149e-08
6.63527e-08
-6.69482e-08
6.05679e-07
-7.56573e-08
5.30172e-08
-6.63527e-08
6.43393e-07
3.69699e-08
-6.62601e-08
6.71101e-07
1.89584e-08
-6.59298e-08
6.89521e-07
4.88259e-15
-6.58478e-08
6.98756e-07
-1.89584e-08
-6.58478e-08
6.98756e-07
-3.69699e-08
-6.59298e-08
6.89521e-07
-5.30172e-08
-6.62601e-08
6.71101e-07
-6.63527e-08
-6.63527e-08
6.43393e-07
-6.69482e-08
6.05679e-07
-7.56573e-08
6.69482e-08
5.61382e-07
-7.6805e-08
-7.6805e-08
5.29744e-08
6.05679e-07
-7.56573e-08
3.6739e-08
6.37949e-07
-7.59149e-08
1.87525e-08
6.59165e-07
-7.55908e-08
2.68204e-15
6.6975e-07
-7.56366e-08
-1.87525e-08
6.6975e-07
-7.56366e-08
-3.6739e-08
6.59165e-07
-7.55908e-08
-5.29744e-08
6.37949e-07
-7.59149e-08
-6.69482e-08
6.05679e-07
-7.56573e-08
5.61382e-07
-7.6805e-08
-7.6805e-08
3.62738e-08
3.62738e-08
5.6512e-07
-3.81428e-08
-3.81428e-08
3.03331e-08
3.79202e-08
6.1331e-07
-3.96104e-08
2.17185e-08
3.89604e-08
6.48512e-07
-4.09088e-08
1.1283e-08
3.94118e-08
6.71729e-07
-4.15403e-08
4.85867e-16
3.96275e-08
6.83316e-07
-4.19103e-08
-1.1283e-08
3.96275e-08
6.83316e-07
-4.19103e-08
-2.17185e-08
3.94118e-08
6.71729e-07
-4.15403e-08
-3.0333e-08
3.89603e-08
6.48512e-07
-4.09088e-08
-3.62738e-08
3.79202e-08
6.1331e-07
-3.96104e-08
3.62738e-08
5.6512e-07
-3.81428e-08
-3.81428e-08
3.79202e-08
3.0333e-08
6.1331e-07
-3.96104e-08
3.19398e-08
3.19398e-08
6.55354e-07
2.29437e-08
3.27714e-08
6.86286e-07
1.19505e-08
3.30844e-08
7.06841e-07
-1.37593e-15
3.32046e-08
7.17129e-07
-1.19505e-08
3.32046e-08
7.17129e-07
-2.29437e-08
3.30844e-08
7.06841e-07
-3.19398e-08
3.27714e-08
6.86286e-07
-3.79203e-08
3.19398e-08
6.55354e-07
3.0333e-08
6.1331e-07
-3.96104e-08
3.89603e-08
2.17185e-08
6.48512e-07
-4.09088e-08
3.27714e-08
2.29437e-08
6.86286e-07
2.35129e-08
2.35129e-08
7.14324e-07
1.22412e-08
2.37009e-08
7.33039e-07
7.29669e-16
2.37568e-08
7.4242e-07
-1.22412e-08
2.37568e-08
7.4242e-07
-2.35129e-08
2.37009e-08
7.33039e-07
-3.27715e-08
2.35129e-08
7.14324e-07
-3.89604e-08
2.29437e-08
6.86286e-07
2.17185e-08
6.48512e-07
-4.09088e-08
3.94118e-08
1.1283e-08
6.71729e-07
-4.15403e-08
3.30844e-08
1.19505e-08
7.06841e-07
2.37009e-08
1.22412e-08
7.33039e-07
1.233e-08
1.233e-08
7.50566e-07
2.37955e-15
1.23514e-08
7.5936e-07
-1.233e-08
1.23514e-08
7.5936e-07
-2.37009e-08
1.233e-08
7.50566e-07
-3.30844e-08
1.22412e-08
7.33039e-07
-3.94118e-08
1.19505e-08
7.06841e-07
1.1283e-08
6.71729e-07
-4.15403e-08
3.96275e-08
-1.99857e-15
6.83316e-07
-4.19103e-08
3.32046e-08
-4.25297e-17
7.17129e-07
2.37568e-08
2.94191e-15
7.4242e-07
1.23514e-08
3.93216e-15
7.5936e-07
2.30049e-15
3.21758e-15
7.67862e-07
-1.23514e-08
1.75156e-15
7.67862e-07
-2.37568e-08
5.88228e-16
7.5936e-07
-3.32046e-08
1.44163e-15
7.4242e-07
-3.96275e-08
3.97037e-15
7.17129e-07
3.51226e-15
6.83316e-07
-4.19103e-08
3.96275e-08
-1.1283e-08
6.83316e-07
-4.19103e-08
3.32046e-08
-1.19505e-08
7.17129e-07
2.37568e-08
-1.22412e-08
7.4242e-07
1.23514e-08
-1.233e-08
7.5936e-07
4.59864e-16
-1.23514e-08
7.67862e-07
-1.23514e-08
-1.23514e-08
7.67862e-07
-2.37568e-08
-1.233e-08
7.5936e-07
-3.32046e-08
-1.22412e-08
7.4242e-07
-3.96275e-08
-1.19505e-08
7.17129e-07
-1.1283e-08
6.83316e-07
-4.19103e-08
3.94118e-08
-2.17185e-08
6.71729e-07
-4.15403e-08
3.30844e-08
-2.29437e-08
7.06841e-07
2.37009e-08
-2.35129e-08
7.33039e-07
1.233e-08
-2.37009e-08
7.50566e-07
-6.41719e-16
-2.37568e-08
7.5936e-07
-1.233e-08
-2.37568e-08
7.5936e-07
-2.37009e-08
-2.37009e-08
7.50566e-07
-3.30844e-08
-2.35129e-08
7.33039e-07
-3.94118e-08
-2.29437e-08
7.06841e-07
-2.17185e-08
6.71729e-07
-4.15403e-08
3.89603e-08
-3.03331e-08
6.48512e-07
-4.09088e-08
3.27714e-08
-3.19398e-08
6.86286e-07
2.35129e-08
-3.27714e-08
7.14324e-07
1.22412e-08
-3.30844e-08
7.33039e-07
6.3615e-16
-3.32046e-08
7.4242e-07
-1.22412e-08
-3.32046e-08
7.4242e-07
-2.35129e-08
-3.30844e-08
7.33039e-07
-3.27714e-08
-3.27714e-08
7.14324e-07
-3.89603e-08
-3.19398e-08
6.86286e-07
-3.0333e-08
6.48512e-07
-4.09088e-08
3.79202e-08
-3.62738e-08
6.1331e-07
-3.96104e-08
3.19398e-08
-3.79202e-08
6.55354e-07
2.29437e-08
-3.89603e-08
6.86286e-07
1.19505e-08
-3.94118e-08
7.06841e-07
3.34654e-15
-3.96275e-08
7.17129e-07
-1.19505e-08
-3.96275e-08
7.17129e-07
-2.29437e-08
-3.94118e-08
7.06841e-07
-3.19398e-08
-3.89603e-08
6.86286e-07
-3.79202e-08
-3.79202e-08
6.55354e-07
-3.62738e-08
6.1331e-07
-3.96104e-08
3.62738e-08
5.6512e-07
-3.81428e-08
-3.81428e-08
3.0333e-08
6.1331e-07
-3.96104e-08
2.17185e-08
6.48512e-07
-4.09088e-08
1.1283e-08
6.71729e-07
-4.15403e-08
2.28077e-15
6.83316e-07
-4.19103e-08
-1.1283e-08
6.83316e-07
-4.19103e-08
-2.17185e-08
6.71729e-07
-4.15403e-08
-3.0333e-08
6.48512e-07
-4.09088e-08
-3.62738e-08
6.1331e-07
-3.96104e-08
5.6512e-07
-3.81428e-08
-3.81428e-08
1.23892e-08
1.23892e-08
5.64382e-07
-1.20202e-08
-1.20202e-08
1.10825e-08
1.42467e-08
6.14074e-07
-1.37039e-08
8.27914e-09
1.55344e-08
6.50676e-07
-1.48954e-08
4.40872e-09
1.62896e-08
6.74951e-07
-1.56409e-08
1.07095e-15
1.66623e-08
6.87095e-07
-1.60327e-08
-4.40872e-09
1.66623e-08
6.87095e-07
-1.60327e-08
-8.27914e-09
1.62895e-08
6.74951e-07
-1.56409e-08
-1.10825e-08
1.55344e-08
6.50676e-07
-1.48954e-08
-1.23892e-08
1.42467e-08
6.14074e-07
-1.37039e-08
1.23892e-08
5.64382e-07
-1.20202e-08
-1.20202e-08
1.42467e-08
1.10825e-08
6.14074e-07
-1.37039e-08
1.27733e-08
1.27733e-08
6.58301e-07
9.56605e-09
1.39116e-08
6.91116e-07
5.10325e-09
1.45682e-08
7.13025e-07
4.00461e-16
1.48804e-08
7.24014e-07
-5.10325e-09
1.48804e-08
7.24014e-07
-9.56605e-09
1.45682e-08
7.13025e-07
-1.27733e-08
1.39116e-08
6.91116e-07
-1.42467e-08
1.27733e-08
6.58301e-07
1.10825e-08
6.14074e-07
-1.37039e-08
1.55344e-08
8.27914e-09
6.50676e-07
-1.48954e-08
1.39116e-08
9.56605e-09
6.91116e-07
1.04024e-08
1.04024e-08
7.21342e-07
5.54559e-09
1.08782e-08
7.41585e-07
1.93314e-15
1.1099e-08
7.51747e-07
-5.54559e-09
1.1099e-08
7.51747e-07
-1.04024e-08
1.08782e-08
7.41585e-07
-1.39116e-08
1.04024e-08
7.21342e-07
-1.55344e-08
9.56606e-09
6.91116e-07
8.27914e-09
6.50676e-07
-1.48954e-08
1.62896e-08
4.40872e-09
6.74951e-07
-1.56409e-08
1.45682e-08
5.10325e-09
7.13025e-07
1.08782e-08
5.54559e-09
7.41585e-07
5.79515e-09
5.79515e-09
7.60732e-07
2.50521e-15
5.90932e-09
7.70344e-07
-5.79515e-09
5.90932e-09
7.70344e-07
-1.08782e-08
5.79515e-09
7.60732e-07
-1.45682e-08
5.54559e-09
7.41585e-07
-1.62895e-08
5.10325e-09
7.13025e-07
4.40872e-09
6.74951e-07
-1.56409e-08
1.66623e-08
-4.47187e-16
6.87095e-07
-1.60327e-08
1.48804e-08
-5.86465e-16
7.24014e-07
1.1099e-08
1.65418e-15
7.51747e-07
5.90932e-09
2.48309e-15
7.70344e-07
2.13206e-15
2.3168e-15
7.79681e-07
-5.90931e-09
1.43738e-15
7.79681e-07
-1.1099e-08
7.60443e-16
7.70344e-07
-1.48804e-08
1.44757e-15
7.51747e-07
-1.66623e-08
3.42959e-15
7.24014e-07
3.38742e-15
6.87095e-07
-1.60327e-08
1.66623e-08
-4.40872e-09
6.87095e-07
-1.60327e-08
1.48804e-08
-5.10325e-09
7.24014e-07
1.1099e-08
-5.54559e-09
7.51747e-07
5.90931e-09
-5.79515e-09
7.70344e-07
1.14417e-15
-5.90931e-09
7.79681e-07
-5.90931e-09
-5.90931e-09
7.79681e-07
-1.1099e-08
-5.79515e-09
7.70344e-07
-1.48804e-08
-5.54559e-09
7.51747e-07
-1.66623e-08
-5.10324e-09
7.24014e-07
-4.40871e-09
6.87095e-07
-1.60327e-08
1.62895e-08
-8.27914e-09
6.74951e-07
-1.56409e-08
1.45682e-08
-9.56606e-09
7.13025e-07
1.08782e-08
-1.04024e-08
7.41585e-07
5.79515e-09
-1.08782e-08
7.60732e-07
8.27421e-16
-1.1099e-08
7.70344e-07
-5.79515e-09
-1.1099e-08
7.70344e-07
-1.08782e-08
-1.08782e-08
7.60732e-07
-1.45682e-08
-1.04024e-08
7.41585e-07
-1.62895e-08
-9.56605e-09
7.13025e-07
-8.27913e-09
6.74951e-07
-1.56409e-08
1.55344e-08
-1.10825e-08
6.50676e-07
-1.48954e-08
1.39116e-08
-1.27733e-08
6.91116e-07
1.04024e-08
-1.39116e-08
7.21342e-07
5.54559e-09
-1.45682e-08
7.41585e-07
1.6107e-15
-1.48804e-08
7.51747e-07
-5.54559e-09
-1.48804e-08
7.51747e-07
-1.04024e-08
-1.45682e-08
7.41585e-07
-1.39116e-08
-1.39116e-08
7.21342e-07
-1.55344e-08
-1.27733e-08
6.91116e-07
-1.10824e-08
6.50676e-07
-1.48954e-08
1.42467e-08
-1.23892e-08
6.14074e-07
-1.37039e-08
1.27733e-08
-1.42467e-08
6.58301e-07
9.56606e-09
-1.55344e-08
6.91116e-07
5.10325e-09
-1.62895e-08
7.13025e-07
2.62045e-15
-1.66623e-08
7.24014e-07
-5.10324e-09
-1.66623e-08
7.24014e-07
-9.56605e-09
-1.62895e-08
7.13025e-07
-1.27733e-08
-1.55344e-08
6.91116e-07
-1.42467e-08
-1.42467e-08
6.58301e-07
-1.23892e-08
6.14074e-07
-1.37039e-08
1.23892e-08
5.64382e-07
-1.20202e-08
-1.20202e-08
1.10825e-08
6.14074e-07
-1.37039e-08
8.27914e-09
6.50676e-07
-1.48954e-08
4.40871e-09
6.74951e-07
-1.56409e-08
1.24676e-15
6.87095e-07
-1.60327e-08
-4.40871e-09
6.87095e-07
-1.60327e-08
-8.27913e-09
6.74951e-07
-1.56409e-08
-1.10825e-08
6.50676e-07
-1.48954e-08
-1.23892e-08
6.14074e-07
-1.37039e-08
5.64382e-07
-1.20202e-08
-1.20202e-08
4.09919e-09
4.09919e-09
5.63814e-07
-3.81537e-09
-3.81537e-09
3.7733e-09
4.90309e-09
6.13987e-07
-4.49059e-09
2.86999e-09
5.49365e-09
6.51066e-07
-4.97976e-09
1.54433e-09
5.87004e-09
6.75714e-07
-5.3076e-09
-8.714e-16
6.06139e-09
6.88059e-07
-5.4811e-09
-1.54433e-09
6.06139e-09
6.88059e-07
-5.4811e-09
-2.86999e-09
5.87004e-09
6.75714e-07
-5.3076e-09
-3.77331e-09
5.49365e-09
6.51066e-07
-4.97976e-09
-4.09919e-09
4.90308e-09
6.13987e-07
-4.49059e-09
4.09919e-09
5.63814e-07
-3.81537e-09
-3.81537e-09
4.90309e-09
3.77331e-09
6.13987e-07
-4.49059e-09
4.54898e-09
4.54898e-09
6.59009e-07
3.4849e-09
5.1172e-09
6.92557e-07
1.88392e-09
5.47666e-09
7.1502e-07
-1.36459e-16
5.6558e-09
7.26304e-07
-1.88392e-09
5.6558e-09
7.26304e-07
-3.4849e-09
5.47666e-09
7.1502e-07
-4.54899e-09
5.1172e-09
6.92557e-07
-4.90309e-09
4.54898e-09
6.59009e-07
3.7733e-09
6.13987e-07
-4.49059e-09
5.49366e-09
2.86999e-09
6.51066e-07
-4.97976e-09
5.1172e-09
3.4849e-09
6.92557e-07
3.92845e-09
3.92845e-09
7.2372e-07
2.1266e-09
4.20788e-09
7.44656e-07
9.82098e-16
4.34537e-09
7.55184e-07
-2.1266e-09
4.34537e-09
7.55184e-07
-3.92844e-09
4.20788e-09
7.44656e-07
-5.1172e-09
3.92845e-09
7.2372e-07
-5.49365e-09
3.4849e-09
6.92557e-07
2.86998e-09
6.51066e-07
-4.97976e-09
5.87004e-09
1.54433e-09
6.75714e-07
-5.3076e-09
5.47666e-09
1.88392e-09
7.1502e-07
4.20788e-09
2.1266e-09
7.44656e-07
2.27926e-09
2.27926e-09
7.64589e-07
1.61119e-15
2.35386e-09
7.74615e-07
-2.27926e-09
2.35386e-09
7.74615e-07
-4.20788e-09
2.27926e-09
7.64589e-07
-5.47665e-09
2.1266e-09
7.44656e-07
-5.87003e-09
1.88392e-09
7.1502e-07
1.54433e-09
6.75714e-07
-5.3076e-09
6.06139e-09
-1.17796e-15
6.88059e-07
-5.4811e-09
5.6558e-09
1.69087e-15
7.26304e-07
4.34537e-09
2.52867e-15
7.55184e-07
2.35386e-09
2.67917e-15
7.74615e-07
1.39367e-15
2.28705e-15
7.84389e-07
-2.35386e-09
1.60441e-15
7.84389e-07
-4.34536e-09
8.8776e-16
7.74615e-07
-5.6558e-09
3.33105e-16
7.55184e-07
-6.06139e-09
1.73448e-16
7.26304e-07
7.72104e-16
6.88059e-07
-5.4811e-09
6.06139e-09
-1.54433e-09
6.88059e-07
-5.4811e-09
5.6558e-09
-1.88392e-09
7.26304e-07
4.34537e-09
-2.12659e-09
7.55184e-07
2.35386e-09
-2.27925e-09
7.74615e-07
7.29208e-16
-2.35386e-09
7.84389e-07
-2.35386e-09
-2.35386e-09
7.84389e-07
-4.34536e-09
-2.27926e-09
7.74615e-07
-5.6558e-09
-2.1266e-09
7.55184e-07
-6.06139e-09
-1.88392e-09
7.26304e-07
-1.54433e-09
6.88059e-07
-5.4811e-09
5.87003e-09
-2.86999e-09
6.75714e-07
-5.3076e-09
5.47665e-09
-3.48489e-09
7.1502e-07
4.20788e-09
-3.92844e-09
7.44656e-07
2.27926e-09
-4.20788e-09
7.64589e-07
-2.60305e-16
-4.34536e-09
7.74615e-07
-2.27926e-09
-4.34536e-09
7.74615e-07
-4.20788e-09
-4.20788e-09
7.64589e-07
-5.47665e-09
-3.92844e-09
7.44656e-07
-5.87004e-09
-3.4849e-09
7.1502e-07
-2.86998e-09
6.75714e-07
-5.3076e-09
5.49364e-09
-3.7733e-09
6.51066e-07
-4.97976e-09
5.1172e-09
-4.54898e-09
6.92557e-07
3.92844e-09
-5.1172e-09
7.2372e-07
2.12659e-09
-5.47665e-09
7.44656e-07
-7.45745e-16
-5.6558e-09
7.55184e-07
-2.1266e-09
-5.6558e-09
7.55184e-07
-3.92845e-09
-5.47665e-09
7.44656e-07
-5.1172e-09
-5.1172e-09
7.2372e-07
-5.49366e-09
-4.54898e-09
6.92557e-07
-3.7733e-09
6.51066e-07
-4.97976e-09
4.90309e-09
-4.09919e-09
6.13987e-07
-4.49059e-09
4.54899e-09
-4.90308e-09
6.59009e-07
3.4849e-09
-5.49365e-09
6.92557e-07
1.88392e-09
-5.87003e-09
7.1502e-07
-2.0326e-16
-6.06139e-09
7.26304e-07
-1.88392e-09
-6.06139e-09
7.26304e-07
-3.4849e-09
-5.87003e-09
7.1502e-07
-4.54898e-09
-5.49365e-09
6.92557e-07
-4.90309e-09
-4.90309e-09
6.59009e-07
-4.09919e-09
6.13987e-07
-4.49059e-09
4.09919e-09
5.63814e-07
-3.81537e-09
-3.81537e-09
3.7733e-09
6.13987e-07
-4.49059e-09
2.86999e-09
6.51066e-07
-4.97976e-09
1.54433e-09
6.75714e-07
-5.3076e-09
1.71096e-15
6.88059e-07
-5.4811e-09
-1.54433e-09
6.88059e-07
-5.4811e-09
-2.86998e-09
6.75714e-07
-5.3076e-09
-3.7733e-09
6.51066e-07
-4.97976e-09
-4.09918e-09
6.13987e-07
-4.49058e-09
5.63814e-07
-3.81537e-09
-3.81537e-09
1.40971e-09
1.40971e-09
5.63522e-07
-1.26339e-09
-1.26339e-09
1.32805e-09
1.73012e-09
6.13862e-07
-1.52342e-09
1.02492e-09
1.96862e-09
6.51115e-07
-1.71473e-09
5.56101e-10
2.12467e-09
6.75903e-07
-1.84547e-09
-6.3514e-16
2.20431e-09
6.88325e-07
-1.91399e-09
-5.56101e-10
2.20431e-09
6.88325e-07
-1.91399e-09
-1.02492e-09
2.12466e-09
6.75903e-07
-1.84547e-09
-1.32805e-09
1.96862e-09
6.51115e-07
-1.71473e-09
-1.40971e-09
1.73012e-09
6.13862e-07
-1.52342e-09
1.40972e-09
5.63522e-07
-1.26339e-09
-1.26339e-09
1.73011e-09
1.32805e-09
6.13862e-07
-1.52342e-09
1.64415e-09
1.64415e-09
6.59181e-07
1.27843e-09
1.88065e-09
6.93011e-07
6.96962e-10
2.0346e-09
7.15691e-07
-4.28564e-16
2.11225e-09
7.27093e-07
-6.96963e-10
2.11225e-09
7.27093e-07
-1.27843e-09
2.03459e-09
7.15691e-07
-1.64415e-09
1.88064e-09
6.93011e-07
-1.73012e-09
1.64415e-09
6.59181e-07
1.32805e-09
6.13862e-07
-1.52342e-09
1.96862e-09
1.02492e-09
6.51115e-07
-1.71473e-09
1.88065e-09
1.27843e-09
6.93011e-07
1.46726e-09
1.46726e-09
7.24547e-07
8.01599e-10
1.5901e-09
7.45766e-07
1.24159e-15
1.65159e-09
7.56446e-07
-8.01596e-10
1.65159e-09
7.56446e-07
-1.46726e-09
1.5901e-09
7.45766e-07
-1.88065e-09
1.46726e-09
7.24547e-07
-1.96863e-09
1.27844e-09
6.93011e-07
1.02492e-09
6.51115e-07
-1.71473e-09
2.12467e-09
5.56099e-10
6.75903e-07
-1.84547e-09
2.0346e-09
6.96963e-10
7.15691e-07
1.5901e-09
8.01598e-10
7.45766e-07
8.69774e-10
8.69773e-10
7.6603e-07
1.8843e-15
9.03776e-10
7.76233e-07
-8.6977e-10
9.03776e-10
7.76233e-07
-1.5901e-09
8.69772e-10
7.6603e-07
-2.0346e-09
8.01598e-10
7.45766e-07
-2.12467e-09
6.96965e-10
7.15691e-07
5.561e-10
6.75903e-07
-1.84547e-09
2.20431e-09
-1.67962e-15
6.88325e-07
-1.91399e-09
2.11225e-09
-3.70628e-16
7.27093e-07
1.65159e-09
4.79985e-16
7.56446e-07
9.03777e-10
1.52891e-15
7.76233e-07
1.99756e-15
1.8416e-15
7.86196e-07
-9.03773e-10
1.77065e-15
7.86196e-07
-1.65159e-09
1.4631e-15
7.76233e-07
-2.11225e-09
1.82357e-15
7.56446e-07
-2.20431e-09
1.71645e-15
7.27093e-07
-5.82169e-16
6.88325e-07
-1.91399e-09
2.20431e-09
-5.56103e-10
6.88325e-07
-1.91399e-09
2.11225e-09
-6.96964e-10
7.27093e-07
1.65159e-09
-8.01598e-10
7.56446e-07
9.03776e-10
-8.6977e-10
7.76233e-07
2.03822e-15
-9.03773e-10
7.86196e-07
-9.03772e-10
-9.03773e-10
7.86196e-07
-1.65159e-09
-8.69769e-10
7.76233e-07
-2.11225e-09
-8.01595e-10
7.56446e-07
-2.20431e-09
-6.96961e-10
7.27093e-07
-5.561e-10
6.88325e-07
-1.91399e-09
2.12466e-09
-1.02492e-09
6.75903e-07
-1.84547e-09
2.0346e-09
-1.27844e-09
7.15691e-07
1.5901e-09
-1.46726e-09
7.45766e-07
8.69773e-10
-1.5901e-09
7.6603e-07
1.68971e-15
-1.65159e-09
7.76233e-07
-8.69769e-10
-1.65159e-09
7.76233e-07
-1.5901e-09
-1.5901e-09
7.6603e-07
-2.03459e-09
-1.46726e-09
7.45766e-07
-2.12466e-09
-1.27843e-09
7.15691e-07
-1.02492e-09
6.75903e-07
-1.84547e-09
1.96863e-09
-1.32805e-09
6.51115e-07
-1.71473e-09
1.88065e-09
-1.64416e-09
6.93011e-07
1.46726e-09
-1.88065e-09
7.24547e-07
8.01599e-10
-2.0346e-09
7.45766e-07
2.24323e-15
-2.11225e-09
7.56446e-07
-8.01595e-10
-2.11225e-09
7.56446e-07
-1.46726e-09
-2.03459e-09
7.45766e-07
-1.88065e-09
-1.88064e-09
7.24547e-07
-1.96862e-09
-1.64415e-09
6.93011e-07
-1.32805e-09
6.51115e-07
-1.71473e-09
1.73012e-09
-1.40972e-09
6.13862e-07
-1.52342e-09
1.64415e-09
-1.73012e-09
6.59181e-07
1.27844e-09
-1.96863e-09
6.93011e-07
6.96966e-10
-2.12466e-09
7.15691e-07
2.6947e-15
-2.20431e-09
7.27093e-07
-6.96958e-10
-2.20431e-09
7.27093e-07
-1.27843e-09
-2.12466e-09
7.15691e-07
-1.64415e-09
-1.96862e-09
6.93011e-07
-1.73011e-09
-1.73012e-09
6.59181e-07
-1.40971e-09
6.13862e-07
-1.52341e-09
1.40971e-09
5.63522e-07
-1.26339e-09
-1.26339e-09
1.32805e-09
6.13862e-07
-1.52342e-09
1.02491e-09
6.51115e-07
-1.71473e-09
5.56099e-10
6.75903e-07
-1.84547e-09
-5.62496e-16
6.88325e-07
-1.91399e-09
-5.56098e-10
6.88325e-07
-1.91399e-09
-1.02491e-09
6.75903e-07
-1.84547e-09
-1.32804e-09
6.51115e-07
-1.71473e-09
-1.40971e-09
6.13862e-07
-1.52342e-09
5.63522e-07
-1.26339e-09
-1.26339e-09
4.66703e-10
4.66705e-10
5.63402e-07
-4.06883e-10
-4.06883e-10
4.5043e-10
5.92515e-10
6.13792e-07
-5.06349e-10
3.52965e-10
6.88229e-10
6.51103e-07
-5.79199e-10
1.93318e-10
7.52546e-10
6.75941e-07
-6.30749e-10
-7.75775e-16
7.85604e-10
6.8839e-07
-6.57612e-10
-1.93321e-10
7.85605e-10
6.8839e-07
-6.57612e-10
-3.52969e-10
7.52546e-10
6.75941e-07
-6.30748e-10
-4.50432e-10
6.88223e-10
6.51103e-07
-5.79196e-10
-4.66701e-10
5.9251e-10
6.13792e-07
-5.06348e-10
4.667e-10
5.63402e-07
-4.06881e-10
-4.06881e-10
5.92517e-10
4.50432e-10
6.13792e-07
-5.0635e-10
5.76457e-10
5.76454e-10
6.59213e-07
4.55349e-10
6.73787e-10
6.93146e-07
2.50534e-10
7.38934e-10
7.1591e-07
1.44274e-15
7.72154e-10
7.27357e-07
-2.5053e-10
7.72155e-10
7.27357e-07
-4.55345e-10
7.38934e-10
7.1591e-07
-5.76455e-10
6.73785e-10
6.93146e-07
-5.92516e-10
5.76451e-10
6.59213e-07
4.50426e-10
6.13792e-07
-5.06349e-10
6.88235e-10
3.52963e-10
6.51103e-07
-5.79201e-10
6.73791e-10
4.55347e-10
6.93146e-07
5.34316e-10
5.34315e-10
7.24825e-07
2.94661e-10
5.8716e-10
7.46157e-07
1.81935e-15
6.13955e-10
7.56899e-07
-2.94657e-10
6.13955e-10
7.56899e-07
-5.34313e-10
5.87159e-10
7.46157e-07
-6.73788e-10
5.34313e-10
7.24825e-07
-6.88229e-10
4.55344e-10
6.93146e-07
3.52959e-10
6.51103e-07
-5.79198e-10
7.52549e-10
1.93315e-10
6.75941e-07
-6.30751e-10
7.38936e-10
2.50534e-10
7.1591e-07
5.8716e-10
2.94661e-10
7.46157e-07
3.24241e-10
3.24241e-10
7.66556e-07
1.57116e-15
3.39203e-10
7.76832e-07
-3.24238e-10
3.39202e-10
7.76832e-07
-5.87158e-10
3.2424e-10
7.66556e-07
-7.38933e-10
2.94659e-10
7.46157e-07
-7.52545e-10
2.50531e-10
7.1591e-07
1.93313e-10
6.75941e-07
-6.3075e-10
7.85604e-10
-1.91629e-15
6.8839e-07
-6.57614e-10
7.72154e-10
1.95048e-15
7.27357e-07
6.13954e-10
2.35433e-15
7.56899e-07
3.39202e-10
2.34141e-15
7.76832e-07
1.43852e-15
2.2166e-15
7.86874e-07
-3.39199e-10
1.69272e-15
7.86874e-07
-6.13951e-10
8.43595e-16
7.76832e-07
-7.7215e-10
3.72283e-16
7.56899e-07
-7.85601e-10
-4.33894e-16
7.27357e-07
4.23354e-16
6.8839e-07
-6.57615e-10
7.85604e-10
-1.9332e-10
6.8839e-07
-6.57613e-10
7.72154e-10
-2.5053e-10
7.27357e-07
6.13954e-10
-2.94655e-10
7.56899e-07
3.39201e-10
-3.24236e-10
7.76832e-07
8.09315e-16
-3.39198e-10
7.86874e-07
-3.392e-10
-3.39199e-10
7.86874e-07
-6.13952e-10
-3.24239e-10
7.76832e-07
-7.72151e-10
-2.94659e-10
7.56899e-07
-7.85602e-10
-2.50531e-10
7.27357e-07
-1.93312e-10
6.8839e-07
-6.57616e-10
7.52544e-10
-3.52968e-10
6.75941e-07
-6.30747e-10
7.38934e-10
-4.55345e-10
7.1591e-07
5.87159e-10
-5.34309e-10
7.46157e-07
3.2424e-10
-5.87156e-10
7.66556e-07
2.78626e-16
-6.1395e-10
7.76832e-07
-3.24239e-10
-6.13952e-10
7.76832e-07
-5.87158e-10
-5.87159e-10
7.66556e-07
-7.38932e-10
-5.34315e-10
7.46157e-07
-7.52544e-10
-4.55345e-10
7.1591e-07
-3.52956e-10
6.75941e-07
-6.3075e-10
6.88223e-10
-4.50431e-10
6.51103e-07
-5.79196e-10
6.73785e-10
-5.76455e-10
6.93146e-07
5.34314e-10
-6.73784e-10
7.24825e-07
2.94659e-10
-7.38931e-10
7.46157e-07
8.04075e-17
-7.7215e-10
7.56899e-07
-2.94658e-10
-7.72152e-10
7.56899e-07
-5.34312e-10
-7.38935e-10
7.46157e-07
-6.73785e-10
-6.73788e-10
7.24825e-07
-6.88229e-10
-5.7645e-10
6.93146e-07
-4.50423e-10
6.51103e-07
-5.79197e-10
5.92511e-10
-4.66702e-10
6.13792e-07
-5.06348e-10
5.76449e-10
-5.92512e-10
6.59213e-07
4.55341e-10
-6.88225e-10
6.93146e-07
2.50527e-10
-7.52545e-10
7.1591e-07
-1.87751e-15
-7.85602e-10
7.27357e-07
-2.50533e-10
-7.85604e-10
7.27357e-07
-4.55347e-10
-7.52549e-10
7.1591e-07
-5.76455e-10
-6.88231e-10
6.93146e-07
-5.92516e-10
-5.9251e-10
6.59213e-07
-4.66697e-10
6.13792e-07
-5.06348e-10
4.66701e-10
5.63402e-07
-4.06881e-10
-4.06881e-10
4.50425e-10
6.13792e-07
-5.06347e-10
3.52957e-10
6.51103e-07
-5.79196e-10
1.93313e-10
6.75941e-07
-6.3075e-10
-7.01376e-17
6.8839e-07
-6.57615e-10
-1.93316e-10
6.8839e-07
-6.57615e-10
-3.52964e-10
6.75941e-07
-6.30751e-10
-4.50432e-10
6.51103e-07
-5.79198e-10
-4.66703e-10
6.13792e-07
-5.06346e-10
5.63402e-07
-4.0688e-10
-4.06879e-10
1.54883e-10
1.54877e-10
5.63359e-07
-1.33247e-10
-1.33247e-10
1.51486e-10
2.00657e-10
6.13763e-07
-1.68707e-10
1.19627e-10
2.36146e-10
6.51094e-07
-1.94455e-10
6.58596e-11
2.60601e-10
6.75948e-07
-2.13341e-10
-9.27507e-16
2.7329e-10
6.88406e-07
-2.23166e-10
-6.58611e-11
2.73288e-10
6.88406e-07
-2.23165e-10
-1.19627e-10
2.60598e-10
6.75948e-07
-2.13338e-10
-1.51485e-10
2.36148e-10
6.51094e-07
-1.94456e-10
-1.54886e-10
2.00664e-10
6.13763e-07
-1.68709e-10
1.54884e-10
5.63359e-07
-1.33251e-10
-1.33251e-10
2.00658e-10
1.51478e-10
6.13763e-07
-1.68707e-10
1.98098e-10
1.98096e-10
6.59218e-07
1.58092e-10
2.35193e-10
6.93187e-07
8.75284e-11
2.60683e-10
7.1598e-07
-1.10871e-15
2.7385e-10
7.27444e-07
-8.75306e-11
2.73848e-10
7.27444e-07
-1.58096e-10
2.6068e-10
7.1598e-07
-1.98104e-10
2.35194e-10
6.93187e-07
-2.00665e-10
1.98102e-10
6.59218e-07
1.51482e-10
6.13763e-07
-1.6871e-10
2.36141e-10
1.19621e-10
6.51094e-07
-1.94453e-10
2.35187e-10
1.58092e-10
6.93187e-07
1.88761e-10
1.88766e-10
7.24918e-07
1.04848e-10
2.09859e-10
7.46292e-07
-3.51322e-16
2.20711e-10
7.57057e-07
-1.04849e-10
2.2071e-10
7.57057e-07
-1.88765e-10
2.09859e-10
7.46292e-07
-2.35193e-10
1.88767e-10
7.24918e-07
-2.36147e-10
1.58095e-10
6.93187e-07
1.19623e-10
6.51094e-07
-1.94455e-10
2.60594e-10
6.58583e-11
6.75948e-07
-2.13338e-10
2.60677e-10
8.7528e-11
7.1598e-07
2.09856e-10
1.04849e-10
7.46292e-07
1.16789e-10
1.1679e-10
7.66742e-07
5.05196e-16
1.22923e-10
7.77046e-07
-1.16788e-10
1.22923e-10
7.77046e-07
-2.09856e-10
1.16791e-10
7.66742e-07
-2.60679e-10
1.04851e-10
7.46292e-07
-2.60597e-10
8.75297e-11