/*--------------------------------*- C++ -*----------------------------------*\
| =========                 |                                                 |
| \\      /  F ield         | OpenFOAM: The Open Source CFD Toolbox           |
|  \\    /   O peration     | Version:  2412                                  |
|   \\  /    A nd           | Website:  www.openfoam.com                      |
|    \\/     M anipulation  |                                                 |
\*---------------------------------------------------------------------------*/
FoamFile
{
    version     2.0;
    format      ascii;
    arch        "LSB;label=32;scalar=64";
    class       surfaceScalarField;
    location    "7";
    object      phi;
}
// * * * * * * * * * * * * * * * * * * * * * * * * * * * * * * * * * * * * * //

dimensions      [0 3 -1 0 0 0 0];

oriented        oriented;

internalField   nonuniform List<scalar> 
43700
(
1.85918e-07
1.85918e-07
5.49771e-07
-2.25794e-07
-2.25794e-07
1.37728e-07
1.65203e-07
5.93939e-07
-2.01569e-07
9.13061e-08
1.51792e-07
6.25355e-07
-1.91294e-07
4.53348e-08
1.42816e-07
6.4554e-07
-1.82672e-07
4.227e-17
1.38486e-07
6.55463e-07
-1.78685e-07
-4.53348e-08
1.38486e-07
6.55463e-07
-1.78685e-07
-9.13061e-08
1.42816e-07
6.4554e-07
-1.82672e-07
-1.37728e-07
1.51792e-07
6.25355e-07
-1.91294e-07
-1.85918e-07
1.65203e-07
5.93939e-07
-2.01569e-07
1.85918e-07
5.49771e-07
-2.25794e-07
-2.25794e-07
1.65203e-07
1.37728e-07
5.93939e-07
-2.01569e-07
1.23002e-07
1.23002e-07
6.30245e-07
8.10862e-08
1.11743e-07
6.55655e-07
4.01613e-08
1.04189e-07
6.72048e-07
8.59884e-17
1.00482e-07
6.80138e-07
-4.01613e-08
1.00482e-07
6.80138e-07
-8.10862e-08
1.04189e-07
6.72048e-07
-1.23002e-07
1.11743e-07
6.55655e-07
-1.65203e-07
1.23002e-07
6.30245e-07
1.37728e-07
5.93939e-07
-2.01569e-07
1.51792e-07
9.13061e-08
6.25355e-07
-1.91294e-07
1.11743e-07
8.10862e-08
6.55655e-07
7.31684e-08
7.31684e-08
6.77023e-07
3.6124e-08
6.7843e-08
6.90953e-07
6.64226e-17
6.52138e-08
6.9787e-07
-3.6124e-08
6.52138e-08
6.9787e-07
-7.31684e-08
6.7843e-08
6.90953e-07
-1.11743e-07
7.31684e-08
6.77023e-07
-1.51792e-07
8.10862e-08
6.55655e-07
9.13061e-08
6.25355e-07
-1.91294e-07
1.42816e-07
4.53348e-08
6.4554e-07
-1.82672e-07
1.04189e-07
4.01613e-08
6.72048e-07
6.7843e-08
3.6124e-08
6.90953e-07
3.33956e-08
3.33956e-08
7.03398e-07
2.21297e-17
3.20438e-08
7.09608e-07
-3.33956e-08
3.20438e-08
7.09608e-07
-6.7843e-08
3.33956e-08
7.03398e-07
-1.04189e-07
3.6124e-08
6.90953e-07
-1.42816e-07
4.01613e-08
6.72048e-07
4.53348e-08
6.4554e-07
-1.82672e-07
1.38486e-07
-1.00485e-16
6.55463e-07
-1.78685e-07
1.00482e-07
1.26896e-16
6.80138e-07
6.52138e-08
1.64641e-16
6.9787e-07
3.20438e-08
5.91271e-17
7.09608e-07
-1.85384e-16
-1.01599e-16
7.1548e-07
-3.20438e-08
8.08117e-17
7.1548e-07
-6.52138e-08
1.71769e-16
7.09608e-07
-1.00482e-07
1.37983e-16
6.9787e-07
-1.38486e-07
5.80991e-17
6.80138e-07
-1.62541e-17
6.55463e-07
-1.78685e-07
1.38486e-07
-4.53348e-08
6.55463e-07
-1.78685e-07
1.00482e-07
-4.01613e-08
6.80138e-07
6.52138e-08
-3.6124e-08
6.9787e-07
3.20438e-08
-3.33956e-08
7.09608e-07
1.02422e-16
-3.20438e-08
7.1548e-07
-3.20438e-08
-3.20438e-08
7.1548e-07
-6.52138e-08
-3.33956e-08
7.09608e-07
-1.00482e-07
-3.6124e-08
6.9787e-07
-1.38486e-07
-4.01613e-08
6.80138e-07
-4.53348e-08
6.55463e-07
-1.78685e-07
1.42816e-07
-9.13061e-08
6.4554e-07
-1.82672e-07
1.04189e-07
-8.10862e-08
6.72048e-07
6.7843e-08
-7.31684e-08
6.90953e-07
3.33956e-08
-6.7843e-08
7.03398e-07
-7.26308e-17
-6.52138e-08
7.09608e-07
-3.33956e-08
-6.52138e-08
7.09608e-07
-6.7843e-08
-6.7843e-08
7.03398e-07
-1.04189e-07
-7.31684e-08
6.90953e-07
-1.42816e-07
-8.10862e-08
6.72048e-07
-9.13061e-08
6.4554e-07
-1.82672e-07
1.51792e-07
-1.37728e-07
6.25355e-07
-1.91294e-07
1.11743e-07
-1.23002e-07
6.55655e-07
7.31684e-08
-1.11743e-07
6.77023e-07
3.6124e-08
-1.04189e-07
6.90953e-07
-5.36188e-17
-1.00482e-07
6.9787e-07
-3.6124e-08
-1.00482e-07
6.9787e-07
-7.31684e-08
-1.04189e-07
6.90953e-07
-1.11743e-07
-1.11743e-07
6.77023e-07
-1.51792e-07
-1.23002e-07
6.55655e-07
-1.37728e-07
6.25355e-07
-1.91294e-07
1.65203e-07
-1.85918e-07
5.93939e-07
-2.01569e-07
1.23002e-07
-1.65203e-07
6.30245e-07
8.10862e-08
-1.51792e-07
6.55655e-07
4.01613e-08
-1.42816e-07
6.72048e-07
-7.79617e-17
-1.38486e-07
6.80138e-07
-4.01613e-08
-1.38486e-07
6.80138e-07
-8.10862e-08
-1.42816e-07
6.72048e-07
-1.23002e-07
-1.51792e-07
6.55655e-07
-1.65203e-07
-1.65203e-07
6.30245e-07
-1.85918e-07
5.93939e-07
-2.01569e-07
1.85918e-07
5.49771e-07
-2.25794e-07
-2.25794e-07
1.37728e-07
5.93939e-07
-2.01569e-07
9.13061e-08
6.25355e-07
-1.91294e-07
4.53348e-08
6.4554e-07
-1.82672e-07
-1.65547e-16
6.55463e-07
-1.78685e-07
-4.53348e-08
6.55463e-07
-1.78685e-07
-9.13061e-08
6.4554e-07
-1.82672e-07
-1.37728e-07
6.25355e-07
-1.91294e-07
-1.85918e-07
5.93939e-07
-2.01569e-07
5.49771e-07
-2.25794e-07
-2.25794e-07
1.27478e-07
1.27478e-07
5.8627e-07
-1.45728e-07
-1.45728e-07
1.00349e-07
1.25137e-07
6.42124e-07
-1.46193e-07
6.85928e-08
1.21696e-07
6.80583e-07
-1.45168e-07
3.46448e-08
1.18426e-07
7.04386e-07
-1.43324e-07
-2.3705e-16
1.16714e-07
7.15777e-07
-1.42383e-07
-3.46448e-08
1.16714e-07
7.15777e-07
-1.42383e-07
-6.85928e-08
1.18426e-07
7.04386e-07
-1.43324e-07
-1.00349e-07
1.21696e-07
6.80583e-07
-1.45168e-07
-1.27478e-07
1.25137e-07
6.42124e-07
-1.46193e-07
1.27478e-07
5.8627e-07
-1.45728e-07
-1.45728e-07
1.25137e-07
1.00349e-07
6.42124e-07
-1.46193e-07
9.65471e-08
9.65471e-08
6.87425e-07
6.50446e-08
9.23289e-08
7.16525e-07
3.25857e-08
8.89215e-08
7.34012e-07
-4.4609e-17
8.71542e-08
7.42283e-07
-3.25857e-08
8.71542e-08
7.42283e-07
-6.50446e-08
8.89215e-08
7.34012e-07
-9.65471e-08
9.23289e-08
7.16525e-07
-1.25137e-07
9.65471e-08
6.87425e-07
1.00349e-07
6.42124e-07
-1.46193e-07
1.21696e-07
6.85928e-08
6.80583e-07
-1.45168e-07
9.23289e-08
6.50446e-08
7.16525e-07
6.14949e-08
6.14949e-08
7.38691e-07
3.06318e-08
5.88376e-08
7.519e-07
1.37894e-17
5.7482e-08
7.58174e-07
-3.06318e-08
5.7482e-08
7.58174e-07
-6.14949e-08
5.88376e-08
7.519e-07
-9.23289e-08
6.14949e-08
7.38691e-07
-1.21696e-07
6.50446e-08
7.16525e-07
6.85928e-08
6.80583e-07
-1.45168e-07
1.18426e-07
3.46448e-08
7.04386e-07
-1.43324e-07
8.89215e-08
3.25857e-08
7.34012e-07
5.88376e-08
3.06318e-08
7.519e-07
2.92166e-08
2.92166e-08
7.6264e-07
7.63654e-17
2.85013e-08
7.67805e-07
-2.92166e-08
2.85013e-08
7.67805e-07
-5.88376e-08
2.92166e-08
7.6264e-07
-8.89215e-08
3.06318e-08
7.519e-07
-1.18426e-07
3.25857e-08
7.34012e-07
3.46448e-08
7.04386e-07
-1.43324e-07
1.16714e-07
7.60388e-17
7.15777e-07
-1.42383e-07
8.71542e-08
1.42583e-17
7.42283e-07
5.7482e-08
1.98567e-16
7.58174e-07
2.85013e-08
1.35502e-16
7.67805e-07
2.30321e-17
-1.37672e-16
7.72483e-07
-2.85013e-08
5.01307e-17
7.72483e-07
-5.7482e-08
2.70375e-16
7.67805e-07
-8.71542e-08
7.72521e-17
7.58174e-07
-1.16714e-07
-1.63321e-17
7.42283e-07
6.04467e-18
7.15777e-07
-1.42383e-07
1.16714e-07
-3.46448e-08
7.15777e-07
-1.42383e-07
8.71542e-08
-3.25857e-08
7.42283e-07
5.7482e-08
-3.06318e-08
7.58174e-07
2.85013e-08
-2.92166e-08
7.67805e-07
2.43415e-16
-2.85013e-08
7.72483e-07
-2.85013e-08
-2.85013e-08
7.72483e-07
-5.7482e-08
-2.92166e-08
7.67805e-07
-8.71542e-08
-3.06318e-08
7.58174e-07
-1.16714e-07
-3.25857e-08
7.42283e-07
-3.46448e-08
7.15777e-07
-1.42383e-07
1.18426e-07
-6.85928e-08
7.04386e-07
-1.43324e-07
8.89215e-08
-6.50446e-08
7.34012e-07
5.88376e-08
-6.14949e-08
7.519e-07
2.92166e-08
-5.88376e-08
7.6264e-07
1.28942e-16
-5.7482e-08
7.67805e-07
-2.92166e-08
-5.7482e-08
7.67805e-07
-5.88376e-08
-5.88376e-08
7.6264e-07
-8.89215e-08
-6.14949e-08
7.519e-07
-1.18426e-07
-6.50446e-08
7.34012e-07
-6.85928e-08
7.04386e-07
-1.43324e-07
1.21696e-07
-1.00349e-07
6.80583e-07
-1.45168e-07
9.23289e-08
-9.65471e-08
7.16525e-07
6.14949e-08
-9.23289e-08
7.38691e-07
3.06318e-08
-8.89215e-08
7.519e-07
8.69907e-17
-8.71542e-08
7.58174e-07
-3.06318e-08
-8.71542e-08
7.58174e-07
-6.14949e-08
-8.89215e-08
7.519e-07
-9.23289e-08
-9.23289e-08
7.38691e-07
-1.21696e-07
-9.65471e-08
7.16525e-07
-1.00349e-07
6.80583e-07
-1.45168e-07
1.25137e-07
-1.27478e-07
6.42124e-07
-1.46193e-07
9.65471e-08
-1.25137e-07
6.87425e-07
6.50446e-08
-1.21696e-07
7.16525e-07
3.25857e-08
-1.18426e-07
7.34012e-07
5.1255e-17
-1.16714e-07
7.42283e-07
-3.25857e-08
-1.16714e-07
7.42283e-07
-6.50446e-08
-1.18426e-07
7.34012e-07
-9.65471e-08
-1.21696e-07
7.16525e-07
-1.25137e-07
-1.25137e-07
6.87425e-07
-1.27478e-07
6.42124e-07
-1.46193e-07
1.27478e-07
5.8627e-07
-1.45728e-07
-1.45728e-07
1.00349e-07
6.42124e-07
-1.46193e-07
6.85928e-08
6.80583e-07
-1.45168e-07
3.46448e-08
7.04386e-07
-1.43324e-07
-6.70706e-17
7.15777e-07
-1.42383e-07
-3.46448e-08
7.15777e-07
-1.42383e-07
-6.85928e-08
7.04386e-07
-1.43324e-07
-1.00349e-07
6.80583e-07
-1.45168e-07
-1.27478e-07
6.42124e-07
-1.46193e-07
5.8627e-07
-1.45728e-07
-1.45728e-07
9.39004e-08
9.39004e-08
5.96351e-07
-9.89405e-08
-9.89405e-08
7.86701e-08
9.90194e-08
6.64254e-07
-1.05919e-07
5.60269e-08
1.01069e-07
7.11491e-07
-1.09335e-07
2.90107e-08
1.01421e-07
7.40797e-07
-1.10816e-07
-3.07399e-16
1.01404e-07
7.54786e-07
-1.11402e-07
-2.90107e-08
1.01404e-07
7.54786e-07
-1.11402e-07
-5.60269e-08
1.01421e-07
7.40797e-07
-1.10816e-07
-7.86701e-08
1.01069e-07
7.11491e-07
-1.09335e-07
-9.39004e-08
9.90194e-08
6.64254e-07
-1.05919e-07
9.39004e-08
5.96351e-07
-9.89405e-08
-9.89405e-08
9.90194e-08
7.86701e-08
6.64254e-07
-1.05919e-07
8.15947e-08
8.15947e-08
7.22275e-07
5.75305e-08
8.23069e-08
7.59352e-07
2.96155e-08
8.19965e-08
7.81351e-07
3.4404e-16
8.16702e-08
7.91632e-07
-2.96155e-08
8.16702e-08
7.91632e-07
-5.75305e-08
8.19965e-08
7.81351e-07
-8.15947e-08
8.23069e-08
7.59352e-07
-9.90194e-08
8.15947e-08
7.22275e-07
7.86701e-08
6.64254e-07
-1.05919e-07
1.01069e-07
5.60269e-08
7.11491e-07
-1.09335e-07
8.23069e-08
5.75305e-08
7.59352e-07
5.757e-08
5.757e-08
7.88165e-07
2.9519e-08
5.70969e-08
8.04851e-07
4.9278e-16
5.67453e-08
8.12618e-07
-2.9519e-08
5.67453e-08
8.12618e-07
-5.757e-08
5.70969e-08
8.04851e-07
-8.23069e-08
5.757e-08
7.88165e-07
-1.01069e-07
5.75305e-08
7.59352e-07
5.60269e-08
7.11491e-07
-1.09335e-07
1.01421e-07
2.90107e-08
7.40797e-07
-1.10816e-07
8.19965e-08
2.96155e-08
7.81351e-07
5.70969e-08
2.9519e-08
8.04851e-07
2.9217e-08
2.9217e-08
8.184e-07
3.95874e-16
2.90095e-08
8.24758e-07
-2.9217e-08
2.90095e-08
8.24758e-07
-5.70969e-08
2.9217e-08
8.184e-07
-8.19965e-08
2.9519e-08
8.04851e-07
-1.01421e-07
2.96155e-08
7.81351e-07
2.90107e-08
7.40797e-07
-1.10816e-07
1.01404e-07
-2.63514e-16
7.54786e-07
-1.11402e-07
8.16702e-08
3.24898e-16
7.91632e-07
5.67453e-08
6.96603e-16
8.12618e-07
2.90095e-08
6.08481e-16
8.24758e-07
3.27135e-16
4.10782e-16
8.30502e-07
-2.90095e-08
4.21239e-16
8.30502e-07
-5.67453e-08
6.29785e-16
8.24758e-07
-8.16702e-08
2.26683e-16
8.12618e-07
-1.01404e-07
-3.70077e-16
7.91632e-07
-6.56058e-17
7.54786e-07
-1.11402e-07
1.01404e-07
-2.90107e-08
7.54786e-07
-1.11402e-07
8.16702e-08
-2.96155e-08
7.91632e-07
5.67453e-08
-2.9519e-08
8.12618e-07
2.90095e-08
-2.9217e-08
8.24758e-07
4.77499e-16
-2.90095e-08
8.30502e-07
-2.90095e-08
-2.90095e-08
8.30502e-07
-5.67453e-08
-2.9217e-08
8.24758e-07
-8.16702e-08
-2.9519e-08
8.12618e-07
-1.01404e-07
-2.96155e-08
7.91632e-07
-2.90107e-08
7.54786e-07
-1.11402e-07
1.01421e-07
-5.60269e-08
7.40797e-07
-1.10816e-07
8.19965e-08
-5.75305e-08
7.81351e-07
5.70969e-08
-5.757e-08
8.04851e-07
2.9217e-08
-5.70969e-08
8.184e-07
1.6661e-16
-5.67453e-08
8.24758e-07
-2.9217e-08
-5.67453e-08
8.24758e-07
-5.70969e-08
-5.70969e-08
8.184e-07
-8.19965e-08
-5.757e-08
8.04851e-07
-1.01421e-07
-5.75305e-08
7.81351e-07
-5.60269e-08
7.40797e-07
-1.10816e-07
1.01069e-07
-7.86701e-08
7.11491e-07
-1.09335e-07
8.23069e-08
-8.15947e-08
7.59352e-07
5.757e-08
-8.23069e-08
7.88165e-07
2.9519e-08
-8.19965e-08
8.04851e-07
-2.80815e-16
-8.16702e-08
8.12618e-07
-2.9519e-08
-8.16702e-08
8.12618e-07
-5.757e-08
-8.19965e-08
8.04851e-07
-8.23069e-08
-8.23069e-08
7.88165e-07
-1.01069e-07
-8.15947e-08
7.59352e-07
-7.86701e-08
7.11491e-07
-1.09335e-07
9.90194e-08
-9.39004e-08
6.64254e-07
-1.05919e-07
8.15947e-08
-9.90194e-08
7.22275e-07
5.75305e-08
-1.01069e-07
7.59352e-07
2.96155e-08
-1.01421e-07
7.81351e-07
-6.63991e-16
-1.01404e-07
7.91632e-07
-2.96155e-08
-1.01404e-07
7.91632e-07
-5.75305e-08
-1.01421e-07
7.81351e-07
-8.15947e-08
-1.01069e-07
7.59352e-07
-9.90194e-08
-9.90194e-08
7.22275e-07
-9.39004e-08
6.64254e-07
-1.05919e-07
9.39004e-08
5.96351e-07
-9.89405e-08
-9.89405e-08
7.86701e-08
6.64254e-07
-1.05919e-07
5.60269e-08
7.11491e-07
-1.09335e-07
2.90107e-08
7.40797e-07
-1.10816e-07
-2.24286e-16
7.54786e-07
-1.11402e-07
-2.90107e-08
7.54786e-07
-1.11402e-07
-5.60269e-08
7.40797e-07
-1.10816e-07
-7.86701e-08
7.11491e-07
-1.09335e-07
-9.39004e-08
6.64254e-07
-1.05919e-07
5.96351e-07
-9.89405e-08
-9.89405e-08
4.38028e-08
4.38028e-08
5.95683e-07
-4.34691e-08
-4.34691e-08
3.87937e-08
5.00663e-08
6.69146e-07
-4.99492e-08
2.86893e-08
5.4006e-08
7.21328e-07
-5.37388e-08
1.52122e-08
5.62056e-08
7.54174e-07
-5.61048e-08
2.84986e-18
5.71939e-08
7.69975e-07
-5.71709e-08
-1.52122e-08
5.71939e-08
7.69975e-07
-5.71709e-08
-2.86894e-08
5.62056e-08
7.54174e-07
-5.61048e-08
-3.87937e-08
5.4006e-08
7.21328e-07
-5.37388e-08
-4.38028e-08
5.00663e-08
6.69146e-07
-4.99492e-08
4.38028e-08
5.95683e-07
-4.34691e-08
-4.34691e-08
5.00663e-08
3.87937e-08
6.69146e-07
-4.99492e-08
4.37547e-08
4.37547e-08
7.34898e-07
3.21656e-08
4.69237e-08
7.78023e-07
1.69822e-08
4.86536e-08
8.04086e-07
1.00085e-15
4.94137e-08
8.16395e-07
-1.69822e-08
4.94137e-08
8.16395e-07
-3.21656e-08
4.86536e-08
8.04086e-07
-4.37547e-08
4.69237e-08
7.78023e-07
-5.00663e-08
4.37547e-08
7.34898e-07
3.87937e-08
6.69146e-07
-4.99492e-08
5.4006e-08
2.86893e-08
7.21328e-07
-5.37388e-08
4.69237e-08
3.21656e-08
7.78023e-07
3.43367e-08
3.43367e-08
8.13339e-07
1.80818e-08
3.55085e-08
8.34251e-07
8.65309e-16
3.60142e-08
8.44099e-07
-1.80818e-08
3.60142e-08
8.44099e-07
-3.43367e-08
3.55085e-08
8.34251e-07
-4.69237e-08
3.43367e-08
8.13339e-07
-5.4006e-08
3.21656e-08
7.78023e-07
2.86894e-08
7.21328e-07
-5.37388e-08
5.62056e-08
1.52122e-08
7.54174e-07
-5.61048e-08
4.86536e-08
1.69822e-08
8.04086e-07
3.55085e-08
1.80818e-08
8.34251e-07
1.86743e-08
1.86743e-08
8.52068e-07
7.00718e-16
1.89278e-08
8.60518e-07
-1.86743e-08
1.89278e-08
8.60518e-07
-3.55085e-08
1.86743e-08
8.52068e-07
-4.86536e-08
1.80818e-08
8.34251e-07
-5.62056e-08
1.69822e-08
8.04086e-07
1.52122e-08
7.54174e-07
-5.61048e-08
5.71939e-08
1.89377e-16
7.69975e-07
-5.71709e-08
4.94137e-08
1.20381e-15
8.16395e-07
3.60142e-08
1.10735e-15
8.44099e-07
1.89278e-08
8.62168e-16
8.60518e-07
6.72085e-16
7.84381e-16
8.68357e-07
-1.89278e-08
7.5622e-16
8.68357e-07
-3.60142e-08
9.32445e-16
8.60518e-07
-4.94137e-08
5.01572e-16
8.44099e-07
-5.71939e-08
-5.7787e-16
8.16395e-07
-5.33895e-16
7.69975e-07
-5.71709e-08
5.71939e-08
-1.52122e-08
7.69975e-07
-5.71709e-08
4.94137e-08
-1.69822e-08
8.16395e-07
3.60142e-08
-1.80818e-08
8.44099e-07
1.89278e-08
-1.86743e-08
8.60518e-07
7.61573e-16
-1.89278e-08
8.68357e-07
-1.89278e-08
-1.89278e-08
8.68357e-07
-3.60142e-08
-1.86743e-08
8.60518e-07
-4.94137e-08
-1.80818e-08
8.44099e-07
-5.71939e-08
-1.69822e-08
8.16395e-07
-1.52122e-08
7.69975e-07
-5.71708e-08
5.62056e-08
-2.86894e-08
7.54174e-07
-5.61048e-08
4.86536e-08
-3.21656e-08
8.04086e-07
3.55085e-08
-3.43367e-08
8.34251e-07
1.86743e-08
-3.55085e-08
8.52068e-07
5.39449e-16
-3.60142e-08
8.60518e-07
-1.86743e-08
-3.60142e-08
8.60518e-07
-3.55085e-08
-3.55085e-08
8.52068e-07
-4.86536e-08
-3.43367e-08
8.34251e-07
-5.62056e-08
-3.21656e-08
8.04086e-07
-2.86894e-08
7.54174e-07
-5.61048e-08
5.4006e-08
-3.87937e-08
7.21328e-07
-5.37388e-08
4.69237e-08
-4.37547e-08
7.78023e-07
3.43367e-08
-4.69237e-08
8.13339e-07
1.80818e-08
-4.86536e-08
8.34251e-07
1.82951e-17
-4.94137e-08
8.44099e-07
-1.80818e-08
-4.94137e-08
8.44099e-07
-3.43367e-08
-4.86536e-08
8.34251e-07
-4.69237e-08
-4.69237e-08
8.13339e-07
-5.4006e-08
-4.37547e-08
7.78023e-07
-3.87937e-08
7.21328e-07
-5.37388e-08
5.00663e-08
-4.38028e-08
6.69146e-07
-4.99492e-08
4.37547e-08
-5.00663e-08
7.34898e-07
3.21656e-08
-5.4006e-08
7.78023e-07
1.69822e-08
-5.62056e-08
8.04086e-07
-8.92884e-16
-5.71939e-08
8.16395e-07
-1.69822e-08
-5.71939e-08
8.16395e-07
-3.21656e-08
-5.62056e-08
8.04086e-07
-4.37547e-08
-5.4006e-08
7.78023e-07
-5.00663e-08
-5.00663e-08
7.34898e-07
-4.38028e-08
6.69146e-07
-4.99492e-08
4.38028e-08
5.95683e-07
-4.34691e-08
-4.34691e-08
3.87937e-08
6.69146e-07
-4.99492e-08
2.86894e-08
7.21328e-07
-5.37388e-08
1.52122e-08
7.54174e-07
-5.61048e-08
-6.19235e-16
7.69975e-07
-5.71709e-08
-1.52122e-08
7.69975e-07
-5.71709e-08
-2.86894e-08
7.54174e-07
-5.61048e-08
-3.87937e-08
7.21328e-07
-5.37388e-08
-4.38028e-08
6.69146e-07
-4.99492e-08
5.95683e-07
-4.34691e-08
-4.34691e-08
2.03877e-08
2.03877e-08
5.93379e-07
-1.92355e-08
-1.92355e-08
1.86717e-08
2.42323e-08
6.69313e-07
-2.26831e-08
1.41682e-08
2.6959e-08
7.23923e-07
-2.505e-08
7.63174e-09
2.86654e-08
7.58651e-07
-2.66063e-08
2.87339e-16
2.94712e-08
7.75465e-07
-2.73296e-08
-7.63174e-09
2.94712e-08
7.75465e-07
-2.73296e-08
-1.41682e-08
2.86654e-08
7.58651e-07
-2.66063e-08
-1.86717e-08
2.6959e-08
7.23923e-07
-2.505e-08
-2.03877e-08
2.42323e-08
6.69313e-07
-2.26831e-08
2.03877e-08
5.93379e-07
-1.92355e-08
-1.92355e-08
2.42323e-08
1.86717e-08
6.69313e-07
-2.26831e-08
2.2141e-08
2.2141e-08
7.3908e-07
1.67781e-08
2.46203e-08
7.85725e-07
9.01998e-09
2.61379e-08
8.14372e-07
9.60634e-16
2.68497e-08
8.28036e-07
-9.01998e-09
2.68497e-08
8.28036e-07
-1.67781e-08
2.61379e-08
8.14372e-07
-2.2141e-08
2.46203e-08
7.85725e-07
-2.42323e-08
2.2141e-08
7.3908e-07
1.86717e-08
6.69313e-07
-2.26831e-08
2.6959e-08
1.41682e-08
7.23923e-07
-2.505e-08
2.46203e-08
1.67781e-08
7.85725e-07
1.8628e-08
1.8628e-08
8.25324e-07
9.99882e-09
1.97436e-08
8.49274e-07
8.59199e-16
2.026e-08
8.60688e-07
-9.99882e-09
2.026e-08
8.60688e-07
-1.8628e-08
1.97436e-08
8.49274e-07
-2.46203e-08
1.8628e-08
8.25324e-07
-2.6959e-08
1.67781e-08
7.85725e-07
1.41682e-08
7.23923e-07
-2.505e-08
2.86654e-08
7.63174e-09
7.58651e-07
-2.66063e-08
2.61379e-08
9.01998e-09
8.14372e-07
1.97436e-08
9.99882e-09
8.49274e-07
1.05857e-08
1.05857e-08
8.70384e-07
6.67664e-16
1.08551e-08
8.80509e-07
-1.05857e-08
1.08551e-08
8.80509e-07
-1.97436e-08
1.05857e-08
8.70384e-07
-2.61379e-08
9.99882e-09
8.49274e-07
-2.86654e-08
9.01998e-09
8.14372e-07
7.63174e-09
7.58651e-07
-2.66063e-08
2.94712e-08
3.07755e-16
7.75465e-07
-2.73296e-08
2.68497e-08
1.18261e-15
8.28036e-07
2.026e-08
1.27224e-15
8.60688e-07
1.08551e-08
9.75291e-16
8.80509e-07
6.29261e-16
9.46812e-16
8.90068e-07
-1.08551e-08
8.94819e-16
8.90068e-07
-2.026e-08
8.4351e-16
8.80509e-07
-2.68497e-08
4.52251e-16
8.60688e-07
-2.94712e-08
-1.7319e-16
8.28036e-07
-1.69665e-16
7.75465e-07
-2.73296e-08
2.94712e-08
-7.63174e-09
7.75465e-07
-2.73296e-08
2.68497e-08
-9.01998e-09
8.28036e-07
2.026e-08
-9.99882e-09
8.60688e-07
1.08551e-08
-1.05857e-08
8.80509e-07
6.35907e-16
-1.08551e-08
8.90068e-07
-1.08551e-08
-1.08551e-08
8.90068e-07
-2.026e-08
-1.05857e-08
8.80509e-07
-2.68497e-08
-9.99882e-09
8.60688e-07
-2.94712e-08
-9.01998e-09
8.28036e-07
-7.63174e-09
7.75465e-07
-2.73296e-08
2.86654e-08
-1.41682e-08
7.58651e-07
-2.66063e-08
2.61379e-08
-1.67781e-08
8.14372e-07
1.97436e-08
-1.8628e-08
8.49274e-07
1.05857e-08
-1.97436e-08
8.70384e-07
4.22024e-16
-2.026e-08
8.80509e-07
-1.05857e-08
-2.026e-08
8.80509e-07
-1.97436e-08
-1.97436e-08
8.70384e-07
-2.61379e-08
-1.8628e-08
8.49274e-07
-2.86654e-08
-1.67781e-08
8.14372e-07
-1.41682e-08
7.58651e-07
-2.66063e-08
2.6959e-08
-1.86717e-08
7.23923e-07
-2.505e-08
2.46203e-08
-2.2141e-08
7.85725e-07
1.8628e-08
-2.46203e-08
8.25324e-07
9.99882e-09
-2.61379e-08
8.49274e-07
-7.36176e-17
-2.68497e-08
8.60688e-07
-9.99882e-09
-2.68497e-08
8.60688e-07
-1.8628e-08
-2.61379e-08
8.49274e-07
-2.46203e-08
-2.46203e-08
8.25324e-07
-2.6959e-08
-2.2141e-08
7.85725e-07
-1.86717e-08
7.23923e-07
-2.505e-08
2.42323e-08
-2.03877e-08
6.69313e-07
-2.26831e-08
2.2141e-08
-2.42323e-08
7.3908e-07
1.67781e-08
-2.6959e-08
7.85725e-07
9.01998e-09
-2.86654e-08
8.14372e-07
-4.91773e-16
-2.94712e-08
8.28036e-07
-9.01998e-09
-2.94712e-08
8.28036e-07
-1.67781e-08
-2.86654e-08
8.14372e-07
-2.2141e-08
-2.6959e-08
7.85725e-07
-2.42323e-08
-2.42323e-08
7.3908e-07
-2.03877e-08
6.69313e-07
-2.26831e-08
2.03877e-08
5.93379e-07
-1.92355e-08
-1.92355e-08
1.86717e-08
6.69313e-07
-2.26831e-08
1.41682e-08
7.23923e-07
-2.505e-08
7.63174e-09
7.58651e-07
-2.66063e-08
-1.66976e-16
7.75465e-07
-2.73296e-08
-7.63174e-09
7.75465e-07
-2.73296e-08
-1.41682e-08
7.58651e-07
-2.66063e-08
-1.86717e-08
7.23923e-07
-2.505e-08
-2.03877e-08
6.69313e-07
-2.26831e-08
5.93379e-07
-1.92355e-08
-1.92355e-08
7.66624e-09
7.66624e-09
5.91399e-07
-6.67639e-09
-6.67639e-09
7.45475e-09
9.82865e-09
6.68091e-07
-8.39526e-09
5.89344e-09
1.15048e-08
7.23668e-07
-9.68936e-09
3.25242e-09
1.26341e-08
7.59256e-07
-1.05981e-08
2.78277e-16
1.31876e-08
7.76565e-07
-1.10351e-08
-3.25242e-09
1.31876e-08
7.76565e-07
-1.10351e-08
-5.89344e-09
1.26341e-08
7.59256e-07
-1.05981e-08
-7.45475e-09
1.15048e-08
7.23668e-07
-9.68936e-09
-7.66624e-09
9.82865e-09
6.68091e-07
-8.39526e-09
7.66624e-09
5.91399e-07
-6.67639e-09
-6.67639e-09
9.82865e-09
7.45475e-09
6.68091e-07
-8.39526e-09
9.58219e-09
9.58219e-09
7.39573e-07
7.5761e-09
1.12351e-08
7.88001e-07
4.17311e-09
1.23201e-08
8.18089e-07
7.00035e-16
1.28489e-08
8.32548e-07
-4.17311e-09
1.28489e-08
8.32548e-07
-7.5761e-09
1.23201e-08
8.18089e-07
-9.58219e-09
1.12351e-08
7.88001e-07
-9.82865e-09
9.58219e-09
7.39573e-07
7.45475e-09
6.68091e-07
-8.39526e-09
1.15048e-08
5.89344e-09
7.23668e-07
-9.68936e-09
1.12351e-08
7.5761e-09
7.88001e-07
8.87113e-09
8.87113e-09
8.30052e-07
4.87577e-09
9.70508e-09
8.55885e-07
5.69496e-16
1.01065e-08
8.68306e-07
-4.87577e-09
1.01065e-08
8.68306e-07
-8.87113e-09
9.70508e-09
8.55885e-07
-1.12351e-08
8.87113e-09
8.30052e-07
-1.15048e-08
7.5761e-09
7.88001e-07
5.89344e-09
7.23668e-07
-9.68936e-09
1.26341e-08
3.25242e-09
7.59256e-07
-1.05981e-08
1.23201e-08
4.17311e-09
8.18089e-07
9.70508e-09
4.87577e-09
8.55885e-07
5.32406e-09
5.32406e-09
8.79146e-07
5.70215e-16
5.5381e-09
8.90401e-07
-5.32406e-09
5.5381e-09
8.90401e-07
-9.70508e-09
5.32406e-09
8.79146e-07
-1.232e-08
4.87577e-09
8.55885e-07
-1.26341e-08
4.17311e-09
8.18089e-07
3.25242e-09
7.59256e-07
-1.05981e-08
1.31876e-08
1.88645e-16
7.76565e-07
-1.10351e-08
1.28489e-08
8.302e-16
8.32548e-07
1.01065e-08
7.84666e-16
8.68306e-07
5.5381e-09
6.70926e-16
8.90401e-07
6.34232e-16
7.3088e-16
9.01144e-07
-5.5381e-09
8.13156e-16
9.01144e-07
-1.01065e-08
7.98341e-16
8.90401e-07
-1.28489e-08
4.7136e-16
8.68306e-07
-1.31876e-08
-5.66945e-17
8.32548e-07
-1.32556e-16
7.76565e-07
-1.10351e-08
1.31876e-08
-3.25242e-09
7.76565e-07
-1.10351e-08
1.28489e-08
-4.17311e-09
8.32548e-07
1.01065e-08
-4.87577e-09
8.68306e-07
5.5381e-09
-5.32406e-09
8.90401e-07
6.82858e-16
-5.5381e-09
9.01144e-07
-5.5381e-09
-5.5381e-09
9.01144e-07
-1.01065e-08
-5.32406e-09
8.90401e-07
-1.28489e-08
-4.87577e-09
8.68306e-07
-1.31876e-08
-4.17311e-09
8.32548e-07
-3.25242e-09
7.76565e-07
-1.10351e-08
1.26341e-08
-5.89344e-09
7.59256e-07
-1.05981e-08
1.23201e-08
-7.5761e-09
8.18089e-07
9.70508e-09
-8.87113e-09
8.55885e-07
5.32406e-09
-9.70508e-09
8.79146e-07
5.9067e-16
-1.01065e-08
8.90401e-07
-5.32406e-09
-1.01065e-08
8.90401e-07
-9.70508e-09
-9.70508e-09
8.79146e-07
-1.232e-08
-8.87113e-09
8.55885e-07
-1.26341e-08
-7.5761e-09
8.18089e-07
-5.89344e-09
7.59256e-07
-1.05981e-08
1.15048e-08
-7.45475e-09
7.23668e-07
-9.68936e-09
1.12351e-08
-9.58219e-09
7.88001e-07
8.87113e-09
-1.12351e-08
8.30052e-07
4.87577e-09
-1.232e-08
8.55885e-07
1.77146e-16
-1.28489e-08
8.68306e-07
-4.87577e-09
-1.28489e-08
8.68306e-07
-8.87113e-09
-1.232e-08
8.55885e-07
-1.12351e-08
-1.12351e-08
8.30052e-07
-1.15048e-08
-9.58219e-09
7.88001e-07
-7.45475e-09
7.23668e-07
-9.68936e-09
9.82865e-09
-7.66624e-09
6.68091e-07
-8.39526e-09
9.58219e-09
-9.82865e-09
7.39573e-07
7.5761e-09
-1.15048e-08
7.88001e-07
4.17311e-09
-1.26341e-08
8.18089e-07
-2.74521e-16
-1.31876e-08
8.32548e-07
-4.17311e-09
-1.31876e-08
8.32548e-07
-7.5761e-09
-1.26341e-08
8.18089e-07
-9.58219e-09
-1.15048e-08
7.88001e-07
-9.82865e-09
-9.82865e-09
7.39573e-07
-7.66624e-09
6.68091e-07
-8.39526e-09
7.66624e-09
5.91399e-07
-6.67639e-09
-6.67639e-09
7.45475e-09
6.68091e-07
-8.39526e-09
5.89344e-09
7.23668e-07
-9.68936e-09
3.25242e-09
7.59256e-07
-1.05981e-08
-1.44171e-16
7.76565e-07
-1.10351e-08
-3.25242e-09
7.76565e-07
-1.10351e-08
-5.89344e-09
7.59256e-07
-1.05981e-08
-7.45475e-09
7.23668e-07
-9.68936e-09
-7.66624e-09
6.68091e-07
-8.39526e-09
5.91399e-07
-6.67639e-09
-6.67639e-09
2.35327e-09
2.35327e-09
5.90385e-07
-1.84634e-09
-1.84634e-09
2.46398e-09
3.32083e-09
6.6719e-07
-2.53005e-09
2.04245e-09
4.13434e-09
7.23043e-07
-3.08724e-09
1.15851e-09
4.71883e-09
7.58929e-07
-3.50792e-09
4.69793e-16
5.0138e-09
7.76425e-07
-3.71526e-09
-1.15851e-09
5.0138e-09
7.76425e-07
-3.71526e-09
-2.04244e-09
4.71883e-09
7.58929e-07
-3.50791e-09
-2.46398e-09
4.13434e-09
7.23043e-07
-3.08724e-09
-2.35327e-09
3.32083e-09
6.6719e-07
-2.53004e-09
2.35327e-09
5.90385e-07
-1.84634e-09
-1.84634e-09
3.32083e-09
2.46398e-09
6.6719e-07
-2.53005e-09
3.49385e-09
3.49385e-09
7.39227e-07
2.89726e-09
4.35807e-09
7.88373e-07
1.63879e-09
4.95998e-09
8.19106e-07
7.12502e-16
5.26225e-09
8.33938e-07
-1.63879e-09
5.26225e-09
8.33938e-07
-2.89726e-09
4.95998e-09
8.19106e-07
-3.49385e-09
4.35806e-09
7.88373e-07
-3.32083e-09
3.49385e-09
7.39227e-07
2.46398e-09
6.6719e-07
-2.53005e-09
4.13434e-09
2.04245e-09
7.23043e-07
-3.08724e-09
4.35807e-09
2.89726e-09
7.88373e-07
3.60464e-09
3.60464e-09
8.31558e-07
2.03163e-09
4.08645e-09
8.58331e-07
7.50108e-16
4.32559e-09
8.71274e-07
-2.03163e-09
4.32559e-09
8.71274e-07
-3.60463e-09
4.08645e-09
8.58331e-07
-4.35806e-09
3.60464e-09
8.31558e-07
-4.13434e-09
2.89726e-09
7.88373e-07
2.04244e-09
7.23043e-07
-3.08724e-09
4.71883e-09
1.15851e-09
7.58929e-07
-3.50792e-09
4.95998e-09
1.63879e-09
8.19106e-07
4.08645e-09
2.03163e-09
8.58331e-07
2.29611e-09
2.29611e-09
8.82727e-07
6.83169e-16
2.42639e-09
8.94597e-07
-2.29611e-09
2.42639e-09
8.94597e-07
-4.08645e-09
2.29611e-09
8.82727e-07
-4.95998e-09
2.03163e-09
8.58331e-07
-4.71883e-09
1.63879e-09
8.19106e-07
1.15851e-09
7.58929e-07
-3.50791e-09
5.0138e-09
2.34606e-16
7.76425e-07
-3.71526e-09
5.26225e-09
6.36582e-16
8.33938e-07
4.32559e-09
8.79694e-16
8.71274e-07
2.42639e-09
8.45491e-16
8.94597e-07
6.96343e-16
8.48257e-16
9.05997e-07
-2.42639e-09
8.16149e-16
9.05997e-07
-4.32559e-09
6.5795e-16
8.94597e-07
-5.26225e-09
4.20836e-16
8.71274e-07
-5.0138e-09
2.2209e-16
8.33938e-07
1.41263e-16
7.76425e-07
-3.71526e-09
5.0138e-09
-1.15851e-09
7.76425e-07
-3.71526e-09
5.26225e-09
-1.63879e-09
8.33938e-07
4.32559e-09
-2.03163e-09
8.71274e-07
2.42639e-09
-2.29611e-09
8.94597e-07
5.62751e-16
-2.42639e-09
9.05997e-07
-2.42639e-09
-2.42639e-09
9.05997e-07
-4.32559e-09
-2.29611e-09
8.94597e-07
-5.26225e-09
-2.03163e-09
8.71274e-07
-5.0138e-09
-1.63879e-09
8.33938e-07
-1.15851e-09
7.76425e-07
-3.71526e-09
4.71883e-09
-2.04244e-09
7.58929e-07
-3.50791e-09
4.95998e-09
-2.89726e-09
8.19106e-07
4.08645e-09
-3.60463e-09
8.58331e-07
2.29611e-09
-4.08645e-09
8.82727e-07
4.16904e-16
-4.32559e-09
8.94597e-07
-2.29611e-09
-4.32559e-09
8.94597e-07
-4.08645e-09
-4.08645e-09
8.82727e-07
-4.95998e-09
-3.60463e-09
8.58331e-07
-4.71883e-09
-2.89726e-09
8.19106e-07
-2.04244e-09
7.58929e-07
-3.50791e-09
4.13434e-09
-2.46398e-09
7.23043e-07
-3.08724e-09
4.35806e-09
-3.49385e-09
7.88373e-07
3.60464e-09
-4.35806e-09
8.31558e-07
2.03163e-09
-4.95998e-09
8.58331e-07
1.40359e-16
-5.26225e-09
8.71274e-07
-2.03163e-09
-5.26225e-09
8.71274e-07
-3.60464e-09
-4.95998e-09
8.58331e-07
-4.35806e-09
-4.35806e-09
8.31558e-07
-4.13434e-09
-3.49385e-09
7.88373e-07
-2.46398e-09
7.23043e-07
-3.08724e-09
3.32083e-09
-2.35327e-09
6.6719e-07
-2.53004e-09
3.49385e-09
-3.32083e-09
7.39227e-07
2.89726e-09
-4.13434e-09
7.88373e-07
1.63879e-09
-4.71883e-09
8.19106e-07
-1.02124e-16
-5.0138e-09
8.33938e-07
-1.63879e-09
-5.0138e-09
8.33938e-07
-2.89726e-09
-4.71883e-09
8.19106e-07
-3.49385e-09
-4.13434e-09
7.88373e-07
-3.32083e-09
-3.32083e-09
7.39227e-07
-2.35327e-09
6.6719e-07
-2.53004e-09
2.35327e-09
5.90385e-07
-1.84634e-09
-1.84634e-09
2.46398e-09
6.6719e-07
-2.53005e-09
2.04244e-09
7.23043e-07
-3.08724e-09
1.15851e-09
7.58929e-07
-3.50791e-09
-1.14386e-16
7.76425e-07
-3.71526e-09
-1.15851e-09
7.76425e-07
-3.71526e-09
-2.04244e-09
7.58929e-07
-3.50791e-09
-2.46398e-09
7.23043e-07
-3.08724e-09
-2.35327e-09
6.6719e-07
-2.53004e-09
5.90385e-07
-1.84634e-09
-1.84634e-09
6.02223e-10
6.02223e-10
5.89957e-07
-3.87814e-10
-3.87814e-10
7.02866e-10
9.72472e-10
6.6674e-07
-6.23572e-10
6.20422e-10
1.30401e-09
7.22652e-07
-8.31044e-10
3.6392e-10
1.55418e-09
7.58626e-07
-9.94906e-10
3.07772e-16
1.68303e-09
7.76183e-07
-1.07728e-09
-3.63919e-10
1.68303e-09
7.76183e-07
-1.07728e-09
-6.20422e-10
1.55418e-09
7.58626e-07
-9.94906e-10
-7.02866e-10
1.30401e-09
7.22652e-07
-8.31044e-10
-6.02222e-10
9.72472e-10
6.6674e-07
-6.23572e-10
6.02223e-10
5.89957e-07
-3.87813e-10
-3.87814e-10
9.72472e-10
7.02866e-10
6.6674e-07
-6.23572e-10
1.12411e-09
1.12411e-09
7.38924e-07
9.83064e-10
1.49816e-09
7.8832e-07
5.71892e-10
1.77071e-09
8.19301e-07
4.59114e-16
1.9105e-09
8.34283e-07
-5.71891e-10
1.9105e-09
8.34283e-07
-9.83063e-10
1.77071e-09
8.19301e-07
-1.12411e-09
1.49816e-09
7.8832e-07
-9.72472e-10
1.12411e-09
7.38924e-07
7.02866e-10
6.6674e-07
-6.23572e-10
1.30401e-09
6.20422e-10
7.22652e-07
-8.31044e-10
1.49816e-09
9.83064e-10
7.8832e-07
1.30029e-09
1.30029e-09
8.31954e-07
7.51431e-10
1.52592e-09
8.59125e-07
4.43381e-16
1.64038e-09
8.72296e-07
-7.5143e-10
1.64038e-09
8.72296e-07
-1.30029e-09
1.52592e-09
8.59125e-07
-1.49816e-09
1.30029e-09
8.31954e-07
-1.30401e-09
9.83064e-10
7.8832e-07
6.20422e-10
7.22652e-07
-8.31043e-10
1.55418e-09
3.6392e-10
7.58626e-07
-9.94906e-10
1.77071e-09
5.71892e-10
8.19301e-07
1.52592e-09
7.51431e-10
8.59125e-07
8.77543e-10
8.77543e-10
8.84023e-07
4.68198e-16
9.41062e-10
8.96174e-07
-8.77542e-10
9.41062e-10
8.96174e-07
-1.52592e-09
8.77543e-10
8.84023e-07
-1.77071e-09
7.51431e-10