/*--------------------------------*- C++ -*----------------------------------*\
| =========                 |                                                 |
| \\      /  F ield         | OpenFOAM: The Open Source CFD Toolbox           |
|  \\    /   O peration     | Version:  2412                                  |
|   \\  /    A nd           | Website:  www.openfoam.com                      |
|    \\/     M anipulation  |                                                 |
\*---------------------------------------------------------------------------*/
FoamFile
{
    version     2.0;
    format      ascii;
    arch        "LSB;label=32;scalar=64";
    class       volVectorField;
    location    "7";
    object      U;
}
// * * * * * * * * * * * * * * * * * * * * * * * * * * * * * * * * * * * * * //

dimensions      [0 1 -1 0 0 0 0];

internalField   nonuniform List<vector> 
15000
(
(0.00121802 0.00121802 0.0104053)
(0.000901744 0.00114235 0.0103618)
(0.000615642 0.00111704 0.0103241)
(0.000361813 0.00109148 0.0102988)
(0.000118898 0.00107965 0.0102869)
(-0.000118898 0.00107965 0.0102869)
(-0.000361813 0.00109148 0.0102988)
(-0.000615642 0.00111704 0.0103241)
(-0.000901744 0.00114235 0.0103618)
(-0.00121802 0.00121802 0.0104053)
(0.00114235 0.000901744 0.0103618)
(0.000851903 0.000851903 0.0103031)
(0.000583779 0.0008154 0.0102631)
(0.000340653 0.000789086 0.0102403)
(0.000111786 0.000776204 0.0102302)
(-0.000111786 0.000776204 0.0102302)
(-0.000340653 0.000789086 0.0102403)
(-0.000583779 0.0008154 0.0102631)
(-0.000851903 0.000851903 0.0103031)
(-0.00114235 0.000901744 0.0103618)
(0.00111704 0.000615642 0.0103241)
(0.0008154 0.000583779 0.0102631)
(0.000554207 0.000554207 0.0102276)
(0.000321361 0.000532453 0.0102084)
(0.000105189 0.000521423 0.0102)
(-0.000105189 0.000521423 0.0102)
(-0.000321361 0.000532453 0.0102084)
(-0.000554207 0.000554207 0.0102276)
(-0.0008154 0.000583779 0.0102631)
(-0.00111704 0.000615642 0.0103241)
(0.00109148 0.000361813 0.0102988)
(0.000789086 0.000340653 0.0102403)
(0.000532453 0.000321361 0.0102084)
(0.000307159 0.000307159 0.0101912)
(0.000100308 0.000299884 0.0101833)
(-0.000100308 0.000299884 0.0101833)
(-0.000307159 0.000307159 0.0101912)
(-0.000532453 0.000321361 0.0102084)
(-0.000789086 0.000340653 0.0102403)
(-0.00109148 0.000361813 0.0102988)
(0.00107965 0.000118898 0.0102869)
(0.000776204 0.000111786 0.0102302)
(0.000521423 0.000105189 0.0102)
(0.000299884 0.000100308 0.0101833)
(9.77998e-05 9.77998e-05 0.0101756)
(-9.77998e-05 9.77998e-05 0.0101756)
(-0.000299884 0.000100308 0.0101833)
(-0.000521423 0.000105189 0.0102)
(-0.000776204 0.000111786 0.0102302)
(-0.00107965 0.000118898 0.0102869)
(0.00107965 -0.000118898 0.0102869)
(0.000776204 -0.000111786 0.0102302)
(0.000521423 -0.000105189 0.0102)
(0.000299884 -0.000100308 0.0101833)
(9.77998e-05 -9.77998e-05 0.0101756)
(-9.77998e-05 -9.77998e-05 0.0101756)
(-0.000299884 -0.000100308 0.0101833)
(-0.000521423 -0.000105189 0.0102)
(-0.000776204 -0.000111786 0.0102302)
(-0.00107965 -0.000118898 0.0102869)
(0.00109148 -0.000361813 0.0102988)
(0.000789086 -0.000340653 0.0102403)
(0.000532453 -0.000321361 0.0102084)
(0.000307159 -0.000307159 0.0101912)
(0.000100308 -0.000299884 0.0101833)
(-0.000100308 -0.000299884 0.0101833)
(-0.000307159 -0.000307159 0.0101912)
(-0.000532453 -0.000321361 0.0102084)
(-0.000789086 -0.000340653 0.0102403)
(-0.00109148 -0.000361813 0.0102988)
(0.00111704 -0.000615642 0.0103241)
(0.0008154 -0.000583779 0.0102631)
(0.000554207 -0.000554207 0.0102276)
(0.000321361 -0.000532453 0.0102084)
(0.000105189 -0.000521423 0.0102)
(-0.000105189 -0.000521423 0.0102)
(-0.000321361 -0.000532453 0.0102084)
(-0.000554207 -0.000554207 0.0102276)
(-0.0008154 -0.000583779 0.0102631)
(-0.00111704 -0.000615642 0.0103241)
(0.00114235 -0.000901744 0.0103618)
(0.000851903 -0.000851903 0.0103031)
(0.000583779 -0.0008154 0.0102631)
(0.000340653 -0.000789086 0.0102403)
(0.000111786 -0.000776204 0.0102302)
(-0.000111786 -0.000776204 0.0102302)
(-0.000340653 -0.000789086 0.0102403)
(-0.000583779 -0.0008154 0.0102631)
(-0.000851903 -0.000851903 0.0103031)
(-0.00114235 -0.000901744 0.0103618)
(0.00121802 -0.00121802 0.0104053)
(0.000901744 -0.00114235 0.0103618)
(0.000615642 -0.00111704 0.0103241)
(0.000361813 -0.00109148 0.0102988)
(0.000118898 -0.00107965 0.0102869)
(-0.000118898 -0.00107965 0.0102869)
(-0.000361813 -0.00109148 0.0102988)
(-0.000615642 -0.00111704 0.0103241)
(-0.000901744 -0.00114235 0.0103618)
(-0.00121802 -0.00121802 0.0104053)
(0.000799461 0.000799461 0.012661)
(0.00063362 0.000846541 0.0126418)
(0.000451801 0.000874542 0.0125572)
(0.000270438 0.000885789 0.0124724)
(8.95753e-05 0.000890871 0.0124237)
(-8.95753e-05 0.000890871 0.0124237)
(-0.000270438 0.000885789 0.0124724)
(-0.000451801 0.000874542 0.0125572)
(-0.00063362 0.000846541 0.0126418)
(-0.000799461 0.000799461 0.012661)
(0.000846541 0.00063362 0.0126418)
(0.000658271 0.000658271 0.012492)
(0.000462286 0.000665919 0.0123145)
(0.000273023 0.000665306 0.0121775)
(9.00597e-05 0.000664241 0.0121056)
(-9.00597e-05 0.000664241 0.0121056)
(-0.000273023 0.000665306 0.0121775)
(-0.000462286 0.000665919 0.0123145)
(-0.000658271 0.000658271 0.012492)
(-0.000846541 0.00063362 0.0126418)
(0.000874542 0.000451801 0.0125572)
(0.000665919 0.000462286 0.0123145)
(0.000461617 0.000461617 0.0120858)
(0.000270302 0.000457595 0.0119239)
(8.88863e-05 0.000455017 0.0118421)
(-8.88863e-05 0.000455017 0.0118421)
(-0.000270302 0.000457595 0.0119239)
(-0.000461617 0.000461617 0.0120858)
(-0.000665919 0.000462286 0.0123145)
(-0.000874542 0.000451801 0.0125572)
(0.000885789 0.000270438 0.0124724)
(0.000665306 0.000273023 0.0121775)
(0.000457595 0.000270302 0.0119239)
(0.000266762 0.000266762 0.0117517)
(8.75795e-05 0.000264712 0.0116662)
(-8.75795e-05 0.000264712 0.0116662)
(-0.000266762 0.000266762 0.0117517)
(-0.000457595 0.000270302 0.0119239)
(-0.000665306 0.000273023 0.0121775)
(-0.000885789 0.000270438 0.0124724)
(0.000890871 8.95753e-05 0.0124237)
(0.000664241 9.00597e-05 0.0121056)
(0.000455017 8.88863e-05 0.0118421)
(0.000264712 8.75795e-05 0.0116662)
(8.68414e-05 8.68414e-05 0.0115797)
(-8.68414e-05 8.68414e-05 0.0115797)
(-0.000264712 8.75795e-05 0.0116662)
(-0.000455017 8.88863e-05 0.0118421)
(-0.000664241 9.00597e-05 0.0121056)
(-0.000890871 8.95753e-05 0.0124237)
(0.000890871 -8.95753e-05 0.0124237)
(0.000664241 -9.00597e-05 0.0121056)
(0.000455017 -8.88863e-05 0.0118421)
(0.000264712 -8.75795e-05 0.0116662)
(8.68414e-05 -8.68414e-05 0.0115797)
(-8.68414e-05 -8.68414e-05 0.0115797)
(-0.000264712 -8.75795e-05 0.0116662)
(-0.000455017 -8.88863e-05 0.0118421)
(-0.000664241 -9.00597e-05 0.0121056)
(-0.000890871 -8.95753e-05 0.0124237)
(0.000885789 -0.000270438 0.0124724)
(0.000665306 -0.000273023 0.0121775)
(0.000457595 -0.000270302 0.0119239)
(0.000266762 -0.000266762 0.0117517)
(8.75795e-05 -0.000264712 0.0116662)
(-8.75795e-05 -0.000264712 0.0116662)
(-0.000266762 -0.000266762 0.0117517)
(-0.000457595 -0.000270302 0.0119239)
(-0.000665306 -0.000273023 0.0121775)
(-0.000885789 -0.000270438 0.0124724)
(0.000874542 -0.000451801 0.0125572)
(0.000665919 -0.000462286 0.0123145)
(0.000461617 -0.000461617 0.0120858)
(0.000270302 -0.000457595 0.0119239)
(8.88863e-05 -0.000455017 0.0118421)
(-8.88863e-05 -0.000455017 0.0118421)
(-0.000270302 -0.000457595 0.0119239)
(-0.000461617 -0.000461617 0.0120858)
(-0.000665919 -0.000462286 0.0123145)
(-0.000874542 -0.000451801 0.0125572)
(0.000846541 -0.00063362 0.0126418)
(0.000658271 -0.000658271 0.012492)
(0.000462286 -0.000665919 0.0123145)
(0.000273023 -0.000665306 0.0121775)
(9.00597e-05 -0.000664241 0.0121056)
(-9.00597e-05 -0.000664241 0.0121056)
(-0.000273023 -0.000665306 0.0121775)
(-0.000462286 -0.000665919 0.0123145)
(-0.000658271 -0.000658271 0.012492)
(-0.000846541 -0.00063362 0.0126418)
(0.000799461 -0.000799461 0.012661)
(0.00063362 -0.000846541 0.0126418)
(0.000451801 -0.000874542 0.0125572)
(0.000270438 -0.000885789 0.0124724)
(8.95753e-05 -0.000890871 0.0124237)
(-8.95753e-05 -0.000890871 0.0124237)
(-0.000270438 -0.000885789 0.0124724)
(-0.000451801 -0.000874542 0.0125572)
(-0.00063362 -0.000846541 0.0126418)
(-0.000799461 -0.000799461 0.012661)
(0.000578611 0.000578611 0.0125232)
(0.000484588 0.000652555 0.0128026)
(0.00036506 0.000702672 0.0129008)
(0.000225812 0.00073212 0.0129155)
(7.60832e-05 0.000746194 0.0129094)
(-7.60832e-05 0.000746194 0.0129094)
(-0.000225812 0.00073212 0.0129155)
(-0.00036506 0.000702672 0.0129008)
(-0.000484588 0.000652555 0.0128026)
(-0.000578611 0.000578611 0.0125232)
(0.000652555 0.000484588 0.0128026)
(0.000543921 0.000543921 0.0129159)
(0.000403429 0.000579653 0.0128722)
(0.000247142 0.000598694 0.0127971)
(8.30308e-05 0.000607253 0.0127489)
(-8.30308e-05 0.000607253 0.0127489)
(-0.000247142 0.000598694 0.0127971)
(-0.000403429 0.000579653 0.0128722)
(-0.000543921 0.000543921 0.0129159)
(-0.000652555 0.000484588 0.0128026)
(0.000702672 0.00036506 0.0129008)
(0.000579653 0.000403429 0.0128722)
(0.000425955 0.000425955 0.0127336)
(0.000259298 0.000437558 0.0126064)
(8.69292e-05 0.000442599 0.0125361)
(-8.69292e-05 0.000442599 0.0125361)
(-0.000259298 0.000437558 0.0126064)
(-0.000425955 0.000425955 0.0127336)
(-0.000579653 0.000403429 0.0128722)
(-0.000702672 0.00036506 0.0129008)
(0.00073212 0.000225812 0.0129155)
(0.000598694 0.000247142 0.0127971)
(0.000437558 0.000259298 0.0126064)
(0.000265525 0.000265525 0.0124545)
(8.8921e-05 0.000268197 0.012375)
(-8.8921e-05 0.000268196 0.012375)
(-0.000265525 0.000265525 0.0124545)
(-0.000437558 0.000259298 0.0126064)
(-0.000598694 0.000247142 0.0127971)
(-0.00073212 0.000225812 0.0129155)
(0.000746194 7.60832e-05 0.0129094)
(0.000607253 8.30308e-05 0.0127489)
(0.000442599 8.69292e-05 0.0125361)
(0.000268196 8.8921e-05 0.012375)
(8.97701e-05 8.97701e-05 0.0122924)
(-8.97701e-05 8.97701e-05 0.0122924)
(-0.000268196 8.8921e-05 0.012375)
(-0.000442599 8.69292e-05 0.0125361)
(-0.000607253 8.30308e-05 0.0127489)
(-0.000746194 7.60832e-05 0.0129094)
(0.000746194 -7.60832e-05 0.0129094)
(0.000607253 -8.30308e-05 0.0127489)
(0.000442599 -8.69292e-05 0.0125361)
(0.000268196 -8.8921e-05 0.012375)
(8.97701e-05 -8.97701e-05 0.0122924)
(-8.97701e-05 -8.97701e-05 0.0122924)
(-0.000268196 -8.8921e-05 0.012375)
(-0.000442599 -8.69292e-05 0.0125361)
(-0.000607253 -8.30308e-05 0.0127489)
(-0.000746194 -7.60832e-05 0.0129094)
(0.00073212 -0.000225812 0.0129155)
(0.000598694 -0.000247142 0.0127971)
(0.000437558 -0.000259298 0.0126064)
(0.000265525 -0.000265525 0.0124545)
(8.8921e-05 -0.000268196 0.012375)
(-8.8921e-05 -0.000268196 0.012375)
(-0.000265525 -0.000265525 0.0124545)
(-0.000437558 -0.000259298 0.0126064)
(-0.000598694 -0.000247142 0.0127971)
(-0.00073212 -0.000225812 0.0129155)
(0.000702672 -0.00036506 0.0129008)
(0.000579653 -0.000403429 0.0128722)
(0.000425955 -0.000425955 0.0127336)
(0.000259298 -0.000437558 0.0126064)
(8.69292e-05 -0.000442599 0.0125361)
(-8.69292e-05 -0.000442599 0.0125361)
(-0.000259298 -0.000437558 0.0126064)
(-0.000425955 -0.000425955 0.0127336)
(-0.000579653 -0.000403429 0.0128722)
(-0.000702672 -0.00036506 0.0129008)
(0.000652555 -0.000484588 0.0128026)
(0.000543921 -0.000543921 0.0129159)
(0.000403429 -0.000579653 0.0128722)
(0.000247142 -0.000598694 0.0127971)
(8.30308e-05 -0.000607253 0.0127489)
(-8.30308e-05 -0.000607253 0.0127489)
(-0.000247142 -0.000598694 0.0127971)
(-0.000403429 -0.000579653 0.0128722)
(-0.000543921 -0.000543921 0.0129159)
(-0.000652555 -0.000484588 0.0128026)
(0.000578611 -0.000578611 0.0125232)
(0.000484588 -0.000652555 0.0128026)
(0.00036506 -0.000702672 0.0129008)
(0.000225812 -0.00073212 0.0129155)
(7.60832e-05 -0.000746194 0.0129094)
(-7.60832e-05 -0.000746194 0.0129094)
(-0.000225812 -0.00073212 0.0129155)
(-0.00036506 -0.000702672 0.0129008)
(-0.000484588 -0.000652555 0.0128026)
(-0.000578611 -0.000578611 0.0125232)
(0.000263781 0.000263781 0.0127405)
(0.000231766 0.000322214 0.0131614)
(0.000184018 0.000364643 0.0133616)
(0.000117199 0.00039307 0.0134389)
(4.01009e-05 0.000407056 0.013462)
(-4.01009e-05 0.000407056 0.013462)
(-0.000117199 0.00039307 0.0134389)
(-0.000184018 0.000364643 0.0133616)
(-0.000231766 0.000322214 0.0131614)
(-0.000263781 0.000263781 0.0127405)
(0.000322214 0.000231766 0.0131614)
(0.000285261 0.000285261 0.0134319)
(0.000222586 0.000323265 0.0134862)
(0.00014089 0.000347279 0.0134663)
(4.8112e-05 0.000358951 0.0134425)
(-4.8112e-05 0.000358951 0.0134425)
(-0.00014089 0.000347279 0.0134663)
(-0.000222586 0.000323265 0.0134862)
(-0.000285261 0.000285261 0.0134319)
(-0.000322214 0.000231766 0.0131614)
(0.000364643 0.000184018 0.0133616)
(0.000323265 0.000222586 0.0134862)
(0.000250793 0.000250793 0.0134348)
(0.000158146 0.000268585 0.0133536)
(5.39422e-05 0.000277199 0.013303)
(-5.39422e-05 0.000277199 0.013303)
(-0.000158146 0.000268585 0.0133536)
(-0.000250793 0.000250793 0.0134348)
(-0.000323265 0.000222586 0.0134862)
(-0.000364643 0.000184018 0.0133616)
(0.00039307 0.000117199 0.0134389)
(0.000347279 0.00014089 0.0134663)
(0.000268585 0.000158146 0.0133536)
(0.000169055 0.000169055 0.0132413)
(5.76292e-05 0.000174324 0.0131786)
(-5.76292e-05 0.000174324 0.0131786)
(-0.000169055 0.000169055 0.0132413)
(-0.000268585 0.000158146 0.0133536)
(-0.000347279 0.00014089 0.0134663)
(-0.00039307 0.000117199 0.0134389)
(0.000407056 4.01009e-05 0.013462)
(0.000358951 4.8112e-05 0.0134425)
(0.000277199 5.39422e-05 0.013303)
(0.000174324 5.76292e-05 0.0131786)
(5.94057e-05 5.94057e-05 0.0131114)
(-5.94057e-05 5.94057e-05 0.0131114)
(-0.000174324 5.76292e-05 0.0131786)
(-0.000277199 5.39422e-05 0.013303)
(-0.000358951 4.8112e-05 0.0134425)
(-0.000407056 4.01009e-05 0.013462)
(0.000407056 -4.01009e-05 0.013462)
(0.000358951 -4.8112e-05 0.0134425)
(0.000277199 -5.39422e-05 0.013303)
(0.000174324 -5.76292e-05 0.0131786)
(5.94057e-05 -5.94057e-05 0.0131114)
(-5.94057e-05 -5.94057e-05 0.0131114)
(-0.000174324 -5.76292e-05 0.0131786)
(-0.000277199 -5.39422e-05 0.013303)
(-0.000358951 -4.8112e-05 0.0134425)
(-0.000407056 -4.01009e-05 0.013462)
(0.00039307 -0.000117199 0.0134389)
(0.000347279 -0.00014089 0.0134663)
(0.000268585 -0.000158146 0.0133536)
(0.000169055 -0.000169055 0.0132413)
(5.76292e-05 -0.000174324 0.0131786)
(-5.76292e-05 -0.000174324 0.0131786)
(-0.000169055 -0.000169055 0.0132413)
(-0.000268585 -0.000158146 0.0133536)
(-0.000347279 -0.00014089 0.0134663)
(-0.00039307 -0.000117199 0.0134389)
(0.000364643 -0.000184018 0.0133616)
(0.000323265 -0.000222586 0.0134862)
(0.000250793 -0.000250793 0.0134348)
(0.000158146 -0.000268585 0.0133536)
(5.39422e-05 -0.000277199 0.013303)
(-5.39422e-05 -0.000277199 0.013303)
(-0.000158146 -0.000268585 0.0133536)
(-0.000250793 -0.000250793 0.0134348)
(-0.000323265 -0.000222586 0.0134862)
(-0.000364643 -0.000184018 0.0133616)
(0.000322214 -0.000231766 0.0131614)
(0.000285261 -0.000285261 0.0134319)
(0.000222586 -0.000323265 0.0134862)
(0.00014089 -0.000347279 0.0134663)
(4.8112e-05 -0.000358951 0.0134425)
(-4.8112e-05 -0.000358951 0.0134425)
(-0.00014089 -0.000347279 0.0134663)
(-0.000222586 -0.000323265 0.0134862)
(-0.000285261 -0.000285261 0.0134319)
(-0.000322214 -0.000231766 0.0131614)
(0.000263781 -0.000263781 0.0127405)
(0.000231766 -0.000322214 0.0131614)
(0.000184018 -0.000364643 0.0133616)
(0.000117199 -0.00039307 0.0134389)
(4.01009e-05 -0.000407056 0.013462)
(-4.01009e-05 -0.000407056 0.013462)
(-0.000117199 -0.00039307 0.0134389)
(-0.000184018 -0.000364643 0.0133616)
(-0.000231766 -0.000322214 0.0131614)
(-0.000263781 -0.000263781 0.0127405)
(0.000121532 0.000121532 0.0126575)
(0.000109747 0.000152731 0.0131618)
(9.04465e-05 0.000177496 0.0134306)
(5.88216e-05 0.000195095 0.0135555)
(2.03494e-05 0.000203946 0.0136025)
(-2.03494e-05 0.000203946 0.0136025)
(-5.88216e-05 0.000195095 0.0135555)
(-9.04465e-05 0.000177496 0.0134306)
(-0.000109747 0.000152731 0.0131618)
(-0.000121532 0.000121532 0.0126575)
(0.000152731 0.000109747 0.0131618)
(0.000141936 0.000141936 0.0135417)
(0.00011525 0.000166721 0.0136785)
(7.47519e-05 0.000183428 0.0137131)
(2.58326e-05 0.000191794 0.0137163)
(-2.58326e-05 0.000191794 0.0137163)
(-7.47519e-05 0.000183428 0.0137131)
(-0.00011525 0.000166721 0.0136785)
(-0.000141936 0.000141936 0.0135417)
(-0.000152731 0.000109747 0.0131618)
(0.000177496 9.04465e-05 0.0134306)
(0.000166721 0.00011525 0.0136785)
(0.00013494 0.00013494 0.0137164)
(8.73314e-05 0.000148131 0.0136926)
(3.01579e-05 0.000154707 0.0136701)
(-3.01579e-05 0.000154707 0.0136701)
(-8.73314e-05 0.000148131 0.0136926)
(-0.00013494 0.00013494 0.0137164)
(-0.000166721 0.00011525 0.0136785)
(-0.000177496 9.04466e-05 0.0134306)
(0.000195095 5.88216e-05 0.0135555)
(0.000183428 7.47519e-05 0.0137131)
(0.000148131 8.73314e-05 0.0136926)
(9.57149e-05 9.57149e-05 0.0136387)
(3.3032e-05 9.98699e-05 0.0136042)
(-3.30319e-05 9.98699e-05 0.0136042)
(-9.57149e-05 9.57149e-05 0.0136387)
(-0.000148131 8.73314e-05 0.0136926)
(-0.000183428 7.47519e-05 0.0137131)
(-0.000195095 5.88216e-05 0.0135555)
(0.000203946 2.03494e-05 0.0136025)
(0.000191794 2.58326e-05 0.0137163)
(0.000154707 3.01579e-05 0.0136701)
(9.98699e-05 3.3032e-05 0.0136042)
(3.44511e-05 3.44511e-05 0.0135652)
(-3.44511e-05 3.44511e-05 0.0135652)
(-9.98699e-05 3.3032e-05 0.0136042)
(-0.000154707 3.01579e-05 0.0136701)
(-0.000191794 2.58326e-05 0.0137163)
(-0.000203946 2.03494e-05 0.0136025)
(0.000203946 -2.03494e-05 0.0136025)
(0.000191794 -2.58326e-05 0.0137163)
(0.000154707 -3.01579e-05 0.0136701)
(9.98699e-05 -3.30319e-05 0.0136042)
(3.44511e-05 -3.44511e-05 0.0135652)
(-3.44511e-05 -3.44511e-05 0.0135652)
(-9.98699e-05 -3.30319e-05 0.0136042)
(-0.000154707 -3.01579e-05 0.0136701)
(-0.000191794 -2.58326e-05 0.0137163)
(-0.000203946 -2.03494e-05 0.0136025)
(0.000195095 -5.88216e-05 0.0135555)
(0.000183428 -7.47519e-05 0.0137131)
(0.000148131 -8.73314e-05 0.0136926)
(9.57149e-05 -9.57149e-05 0.0136387)
(3.3032e-05 -9.98699e-05 0.0136042)
(-3.30319e-05 -9.98699e-05 0.0136042)
(-9.57149e-05 -9.57149e-05 0.0136387)
(-0.000148131 -8.73314e-05 0.0136926)
(-0.000183428 -7.47519e-05 0.0137131)
(-0.000195095 -5.88215e-05 0.0135555)
(0.000177496 -9.04465e-05 0.0134306)
(0.000166721 -0.00011525 0.0136785)
(0.00013494 -0.00013494 0.0137164)
(8.73314e-05 -0.000148131 0.0136926)
(3.01579e-05 -0.000154707 0.0136701)
(-3.01579e-05 -0.000154707 0.0136701)
(-8.73314e-05 -0.000148131 0.0136926)
(-0.00013494 -0.00013494 0.0137164)
(-0.000166721 -0.00011525 0.0136785)
(-0.000177496 -9.04465e-05 0.0134306)
(0.000152731 -0.000109747 0.0131618)
(0.000141936 -0.000141936 0.0135417)
(0.00011525 -0.000166721 0.0136785)
(7.47519e-05 -0.000183428 0.0137131)
(2.58326e-05 -0.000191794 0.0137163)
(-2.58326e-05 -0.000191794 0.0137163)
(-7.47519e-05 -0.000183428 0.0137131)
(-0.00011525 -0.000166721 0.0136785)
(-0.000141936 -0.000141936 0.0135417)
(-0.000152731 -0.000109747 0.0131618)
(0.000121532 -0.000121532 0.0126575)
(0.000109747 -0.000152731 0.0131618)
(9.04466e-05 -0.000177496 0.0134306)
(5.88216e-05 -0.000195095 0.0135555)
(2.03494e-05 -0.000203946 0.0136025)
(-2.03494e-05 -0.000203946 0.0136025)
(-5.88215e-05 -0.000195095 0.0135555)
(-9.04465e-05 -0.000177496 0.0134306)
(-0.000109747 -0.000152731 0.0131618)
(-0.000121532 -0.000121532 0.0126575)
(4.44529e-05 4.44529e-05 0.0125976)
(4.25494e-05 5.98545e-05 0.0131273)
(3.71896e-05 7.28882e-05 0.0134223)
(2.49607e-05 8.26556e-05 0.0135678)
(8.77709e-06 8.76732e-05 0.0136259)
(-8.77709e-06 8.76732e-05 0.0136259)
(-2.49607e-05 8.26556e-05 0.0135678)
(-3.71896e-05 7.28882e-05 0.0134223)
(-4.25494e-05 5.98545e-05 0.0131273)
(-4.44529e-05 4.44529e-05 0.0125976)
(5.98545e-05 4.25494e-05 0.0131273)
(5.98682e-05 5.98682e-05 0.0135523)
(5.13884e-05 7.41985e-05 0.0137297)
(3.44391e-05 8.43995e-05 0.0137943)
(1.20891e-05 8.96398e-05 0.0138132)
(-1.20891e-05 8.96398e-05 0.0138132)
(-3.44391e-05 8.43995e-05 0.0137943)
(-5.13884e-05 7.41985e-05 0.0137297)
(-5.98682e-05 5.98682e-05 0.0135523)
(-5.98545e-05 4.25494e-05 0.0131273)
(7.28882e-05 3.71896e-05 0.0134223)
(7.41985e-05 5.13884e-05 0.0137297)
(6.34534e-05 6.34534e-05 0.0138186)
(4.24162e-05 7.19293e-05 0.013831)
(1.48698e-05 7.62552e-05 0.013827)
(-1.48698e-05 7.62552e-05 0.013827)
(-4.24161e-05 7.19293e-05 0.013831)
(-6.34534e-05 6.34534e-05 0.0138186)
(-7.41985e-05 5.13884e-05 0.0137297)
(-7.28882e-05 3.71896e-05 0.0134223)
(8.26556e-05 2.49607e-05 0.0135678)
(8.43995e-05 3.44391e-05 0.0137943)
(7.19293e-05 4.24162e-05 0.013831)
(4.79601e-05 4.79601e-05 0.0138167)
(1.6793e-05 5.07683e-05 0.0138022)
(-1.6793e-05 5.07683e-05 0.0138022)
(-4.79601e-05 4.79601e-05 0.0138167)
(-7.19293e-05 4.24162e-05 0.013831)
(-8.43995e-05 3.44391e-05 0.0137943)
(-8.26556e-05 2.49607e-05 0.0135678)
(8.76732e-05 8.77709e-06 0.0136259)
(8.96398e-05 1.20891e-05 0.0138132)
(7.62552e-05 1.48698e-05 0.013827)
(5.07683e-05 1.6793e-05 0.0138022)
(1.77631e-05 1.77631e-05 0.0137837)
(-1.77631e-05 1.77631e-05 0.0137837)
(-5.07683e-05 1.6793e-05 0.0138022)
(-7.62552e-05 1.48698e-05 0.013827)
(-8.96398e-05 1.20891e-05 0.0138132)
(-8.76732e-05 8.77708e-06 0.0136259)
(8.76732e-05 -8.77709e-06 0.0136259)
(8.96398e-05 -1.20891e-05 0.0138132)
(7.62552e-05 -1.48698e-05 0.013827)
(5.07683e-05 -1.6793e-05 0.0138022)
(1.77631e-05 -1.77631e-05 0.0137837)
(-1.77631e-05 -1.77631e-05 0.0137837)
(-5.07683e-05 -1.67929e-05 0.0138022)
(-7.62552e-05 -1.48698e-05 0.013827)
(-8.96398e-05 -1.20891e-05 0.0138132)
(-8.76732e-05 -8.77709e-06 0.0136259)
(8.26556e-05 -2.49607e-05 0.0135678)
(8.43995e-05 -3.44391e-05 0.0137943)
(7.19293e-05 -4.24161e-05 0.013831)
(4.79601e-05 -4.79601e-05 0.0138167)
(1.6793e-05 -5.07683e-05 0.0138022)
(-1.6793e-05 -5.07683e-05 0.0138022)
(-4.79601e-05 -4.79601e-05 0.0138167)
(-7.19293e-05 -4.24161e-05 0.013831)
(-8.43995e-05 -3.44391e-05 0.0137943)
(-8.26556e-05 -2.49607e-05 0.0135678)
(7.28882e-05 -3.71896e-05 0.0134223)
(7.41985e-05 -5.13884e-05 0.0137297)
(6.34534e-05 -6.34534e-05 0.0138186)
(4.24161e-05 -7.19293e-05 0.013831)
(1.48698e-05 -7.62552e-05 0.013827)
(-1.48698e-05 -7.62552e-05 0.013827)
(-4.24161e-05 -7.19293e-05 0.013831)
(-6.34534e-05 -6.34534e-05 0.0138186)
(-7.41985e-05 -5.13883e-05 0.0137297)
(-7.28882e-05 -3.71895e-05 0.0134223)
(5.98545e-05 -4.25494e-05 0.0131273)
(5.98682e-05 -5.98682e-05 0.0135523)
(5.13884e-05 -7.41985e-05 0.0137297)
(3.44391e-05 -8.43995e-05 0.0137943)
(1.20891e-05 -8.96398e-05 0.0138132)
(-1.20891e-05 -8.96398e-05 0.0138132)
(-3.44391e-05 -8.43995e-05 0.0137943)
(-5.13883e-05 -7.41985e-05 0.0137297)
(-5.98682e-05 -5.98682e-05 0.0135523)
(-5.98545e-05 -4.25494e-05 0.0131273)
(4.44529e-05 -4.44529e-05 0.0125976)
(4.25494e-05 -5.98545e-05 0.0131273)
(3.71896e-05 -7.28882e-05 0.0134223)
(2.49607e-05 -8.26556e-05 0.0135678)
(8.77709e-06 -8.76732e-05 0.0136259)
(-8.77709e-06 -8.76732e-05 0.0136259)
(-2.49607e-05 -8.26556e-05 0.0135678)
(-3.71895e-05 -7.28882e-05 0.0134223)
(-4.25494e-05 -5.98545e-05 0.0131273)
(-4.44529e-05 -4.44529e-05 0.0125976)
(1.31594e-05 1.31594e-05 0.0125681)
(1.35625e-05 1.93523e-05 0.0131048)
(1.2726e-05 2.49691e-05 0.0134094)
(8.84175e-06 2.94218e-05 0.0135634)
(3.17055e-06 3.1757e-05 0.0136264)
(-3.17054e-06 3.1757e-05 0.0136264)
(-8.84175e-06 2.94218e-05 0.0135634)
(-1.2726e-05 2.49691e-05 0.0134094)
(-1.35625e-05 1.93523e-05 0.0131048)
(-1.31594e-05 1.31594e-05 0.0125681)
(1.93523e-05 1.35625e-05 0.0131048)
(2.11954e-05 2.11954e-05 0.0135471)
(1.93998e-05 2.79939e-05 0.0137429)
(1.34691e-05 3.31025e-05 0.0138223)
(4.81014e-06 3.5791e-05 0.0138493)
(-4.81013e-06 3.5791e-05 0.0138493)
(-1.34691e-05 3.31025e-05 0.0138223)
(-1.93999e-05 2.79939e-05 0.0137429)
(-2.11954e-05 2.11954e-05 0.0135471)
(-1.93523e-05 1.35625e-05 0.0131048)
(2.49691e-05 1.2726e-05 0.0134094)
(2.79939e-05 1.93998e-05 0.0137429)
(2.54657e-05 2.54657e-05 0.0138575)
(1.76186e-05 2.99336e-05 0.0138894)
(6.27577e-06 3.2266e-05 0.0138958)
(-6.27576e-06 3.2266e-05 0.0138958)
(-1.76186e-05 2.99336e-05 0.0138894)
(-2.54657e-05 2.54657e-05 0.0138575)
(-2.79939e-05 1.93999e-05 0.0137429)
(-2.49691e-05 1.2726e-05 0.0134094)
(2.94218e-05 8.84176e-06 0.0135634)
(3.31025e-05 1.34691e-05 0.0138223)
(2.99336e-05 1.76186e-05 0.0138894)
(2.06299e-05 2.06299e-05 0.0138974)
(7.33315e-06 2.21887e-05 0.0138944)
(-7.33315e-06 2.21887e-05 0.0138944)
(-2.06298e-05 2.06299e-05 0.0138974)
(-2.99336e-05 1.76186e-05 0.0138894)
(-3.31025e-05 1.34691e-05 0.0138223)
(-2.94218e-05 8.84175e-06 0.0135634)
(3.1757e-05 3.17055e-06 0.0136264)
(3.5791e-05 4.81014e-06 0.0138493)
(3.2266e-05 6.27577e-06 0.0138958)
(2.21887e-05 7.33316e-06 0.0138944)
(7.87837e-06 7.87837e-06 0.013888)
(-7.87836e-06 7.87837e-06 0.013888)
(-2.21887e-05 7.33315e-06 0.0138944)
(-3.2266e-05 6.27577e-06 0.0138958)
(-3.5791e-05 4.81014e-06 0.0138493)
(-3.1757e-05 3.17054e-06 0.0136264)
(3.1757e-05 -3.17054e-06 0.0136264)
(3.5791e-05 -4.81013e-06 0.0138493)
(3.2266e-05 -6.27576e-06 0.0138958)
(2.21887e-05 -7.33314e-06 0.0138944)
(7.87837e-06 -7.87836e-06 0.013888)
(-7.87837e-06 -7.87836e-06 0.013888)
(-2.21887e-05 -7.33315e-06 0.0138944)
(-3.2266e-05 -6.27576e-06 0.0138958)
(-3.5791e-05 -4.81014e-06 0.0138493)
(-3.1757e-05 -3.17054e-06 0.0136264)
(2.94218e-05 -8.84175e-06 0.0135634)
(3.31025e-05 -1.34691e-05 0.0138223)
(2.99336e-05 -1.76186e-05 0.0138894)
(2.06299e-05 -2.06298e-05 0.0138974)
(7.33315e-06 -2.21887e-05 0.0138944)
(-7.33315e-06 -2.21887e-05 0.0138944)
(-2.06298e-05 -2.06298e-05 0.0138974)
(-2.99336e-05 -1.76186e-05 0.0138894)
(-3.31025e-05 -1.34691e-05 0.0138223)
(-2.94218e-05 -8.84175e-06 0.0135634)
(2.49691e-05 -1.2726e-05 0.0134094)
(2.79939e-05 -1.93999e-05 0.0137429)
(2.54657e-05 -2.54657e-05 0.0138575)
(1.76186e-05 -2.99336e-05 0.0138894)
(6.27576e-06 -3.2266e-05 0.0138958)
(-6.27576e-06 -3.2266e-05 0.0138958)
(-1.76186e-05 -2.99336e-05 0.0138894)
(-2.54657e-05 -2.54657e-05 0.0138575)
(-2.79939e-05 -1.93998e-05 0.0137429)
(-2.49691e-05 -1.2726e-05 0.0134094)
(1.93523e-05 -1.35625e-05 0.0131048)
(2.11954e-05 -2.11954e-05 0.0135471)
(1.93999e-05 -2.79939e-05 0.0137429)
(1.34691e-05 -3.31025e-05 0.0138223)
(4.81014e-06 -3.5791e-05 0.0138493)
(-4.81014e-06 -3.5791e-05 0.0138493)
(-1.34691e-05 -3.31025e-05 0.0138223)
(-1.93998e-05 -2.79939e-05 0.0137429)
(-2.11954e-05 -2.11954e-05 0.0135471)
(-1.93523e-05 -1.35625e-05 0.0131048)
(1.31594e-05 -1.31594e-05 0.0125681)
(1.35625e-05 -1.93523e-05 0.0131048)
(1.2726e-05 -2.49691e-05 0.0134094)
(8.84175e-06 -2.94218e-05 0.0135634)
(3.17054e-06 -3.1757e-05 0.0136264)
(-3.17054e-06 -3.1757e-05 0.0136264)
(-8.84175e-06 -2.94218e-05 0.0135634)
(-1.2726e-05 -2.49691e-05 0.0134094)
(-1.35625e-05 -1.93523e-05 0.0131048)
(-1.31594e-05 -1.31594e-05 0.0125681)
(3.17568e-06 3.17568e-06 0.0125545)
(3.67392e-06 5.32593e-06 0.0130922)
(3.80718e-06 7.39839e-06 0.0133995)
(2.76116e-06 9.13472e-06 0.0135565)
(1.01538e-06 1.00604e-05 0.0136213)
(-1.01538e-06 1.00604e-05 0.0136213)
(-2.76116e-06 9.13472e-06 0.0135565)
(-3.80718e-06 7.39839e-06 0.0133995)
(-3.67391e-06 5.32592e-06 0.0130922)
(-3.17568e-06 3.17568e-06 0.0125545)
(5.32593e-06 3.67392e-06 0.0130922)
(6.57833e-06 6.57833e-06 0.0135399)
(6.48895e-06 9.32846e-06 0.0137428)
(4.67913e-06 1.14907e-05 0.0138286)
(1.70257e-06 1.26511e-05 0.0138591)
(-1.70257e-06 1.26511e-05 0.0138591)
(-4.67913e-06 1.14907e-05 0.0138286)
(-6.48895e-06 9.32846e-06 0.0137428)
(-6.57833e-06 6.57833e-06 0.0135399)
(-5.32592e-06 3.67391e-06 0.0130922)
(7.39839e-06 3.80718e-06 0.0133995)
(9.32846e-06 6.48895e-06 0.0137428)
(9.06754e-06 9.06754e-06 0.0138686)
(6.4944e-06 1.10454e-05 0.0139096)
(2.35073e-06 1.20972e-05 0.0139209)
(-2.35072e-06 1.20972e-05 0.0139209)
(-6.49439e-06 1.10454e-05 0.0139096)
(-9.06754e-06 9.06754e-06 0.0138686)
(-9.32846e-06 6.48895e-06 0.0137428)
(-7.39838e-06 3.80718e-06 0.0133995)
(9.13472e-06 2.76116e-06 0.0135565)
(1.14907e-05 4.67913e-06 0.0138286)
(1.10454e-05 6.4944e-06 0.0139096)
(7.86333e-06 7.86333e-06 0.0139285)
(2.83651e-06 8.58512e-06 0.0139312)
(-2.8365e-06 8.58512e-06 0.0139312)
(-7.86332e-06 7.86333e-06 0.0139285)
(-1.10454e-05 6.4944e-06 0.0139096)
(-1.14907e-05 4.67913e-06 0.0138286)
(-9.13472e-06 2.76116e-06 0.0135565)
(1.00604e-05 1.01538e-06 0.0136213)
(1.26511e-05 1.70257e-06 0.0138591)
(1.20972e-05 2.35073e-06 0.0139209)
(8.58512e-06 2.83651e-06 0.0139312)
(3.09172e-06 3.09172e-06 0.013931)
(-3.09172e-06 3.09172e-06 0.013931)
(-8.58511e-06 2.83651e-06 0.0139312)
(-1.20972e-05 2.35073e-06 0.0139209)
(-1.26511e-05 1.70257e-06 0.0138591)
(-1.00604e-05 1.01538e-06 0.0136213)
(1.00604e-05 -1.01538e-06 0.0136213)
(1.26511e-05 -1.70257e-06 0.0138591)
(1.20972e-05 -2.35072e-06 0.0139209)
(8.58512e-06 -2.8365e-06 0.0139312)
(3.09172e-06 -3.09172e-06 0.013931)
(-3.09172e-06 -3.09172e-06 0.013931)
(-8.58511e-06 -2.8365e-06 0.0139312)
(-1.20972e-05 -2.35072e-06 0.0139209)
(-1.26511e-05 -1.70257e-06 0.0138591)
(-1.00604e-05 -1.01538e-06 0.0136213)
(9.13472e-06 -2.76116e-06 0.0135565)
(1.14907e-05 -4.67913e-06 0.0138286)
(1.10454e-05 -6.49439e-06 0.0139096)
(7.86333e-06 -7.86332e-06 0.0139285)
(2.83651e-06 -8.58511e-06 0.0139312)
(-2.8365e-06 -8.58511e-06 0.0139312)
(-7.86332e-06 -7.86332e-06 0.0139285)
(-1.10454e-05 -6.49439e-06 0.0139096)
(-1.14907e-05 -4.67913e-06 0.0138286)
(-9.13471e-06 -2.76116e-06 0.0135565)
(7.39838e-06 -3.80718e-06 0.0133995)
(9.32846e-06 -6.48895e-06 0.0137428)
(9.06754e-06 -9.06754e-06 0.0138686)
(6.4944e-06 -1.10454e-05 0.0139096)
(2.35073e-06 -1.20972e-05 0.0139209)
(-2.35072e-06 -1.20972e-05 0.0139209)
(-6.49439e-06 -1.10454e-05 0.0139096)
(-9.06753e-06 -9.06753e-06 0.0138686)
(-9.32845e-06 -6.48894e-06 0.0137428)
(-7.39838e-06 -3.80718e-06 0.0133995)
(5.32592e-06 -3.67391e-06 0.0130922)
(6.57833e-06 -6.57833e-06 0.0135399)
(6.48895e-06 -9.32846e-06 0.0137428)
(4.67913e-06 -1.14907e-05 0.0138286)
(1.70257e-06 -1.26511e-05 0.0138591)
(-1.70257e-06 -1.26511e-05 0.0138591)
(-4.67913e-06 -1.14907e-05 0.0138286)
(-6.48895e-06 -9.32845e-06 0.0137428)
(-6.57833e-06 -6.57833e-06 0.0135399)
(-5.32592e-06 -3.67391e-06 0.0130922)
(3.17568e-06 -3.17568e-06 0.0125545)
(3.67391e-06 -5.32592e-06 0.0130922)
(3.80718e-06 -7.39839e-06 0.0133995)