/*--------------------------------*- C++ -*----------------------------------*\
| =========                 |                                                 |
| \\      /  F ield         | OpenFOAM: The Open Source CFD Toolbox           |
|  \\    /   O peration     | Version:  2412                                  |
|   \\  /    A nd           | Website:  www.openfoam.com                      |
|    \\/     M anipulation  |                                                 |
\*---------------------------------------------------------------------------*/
FoamFile
{
    version     2.0;
    format      ascii;
    arch        "LSB;label=32;scalar=64";
    class       surfaceScalarField;
    location    "7.3";
    object      phi;
}
// * * * * * * * * * * * * * * * * * * * * * * * * * * * * * * * * * * * * * //

dimensions      [0 3 -1 0 0 0 0];

oriented        oriented;

internalField   nonuniform List<scalar> 
43700
(
1.85529e-07
1.85529e-07
5.49787e-07
-2.25413e-07
-2.25413e-07
1.37395e-07
1.64777e-07
5.93867e-07
-2.01126e-07
9.10716e-08
1.51362e-07
6.25208e-07
-1.90816e-07
4.52155e-08
1.42396e-07
6.45349e-07
-1.82177e-07
1.40939e-17
1.38077e-07
6.55252e-07
-1.78184e-07
-4.52155e-08
1.38077e-07
6.55252e-07
-1.78184e-07
-9.10716e-08
1.42396e-07
6.45349e-07
-1.82177e-07
-1.37395e-07
1.51362e-07
6.25208e-07
-1.90816e-07
-1.85529e-07
1.64777e-07
5.93867e-07
-2.01126e-07
1.85529e-07
5.49787e-07
-2.25413e-07
-2.25413e-07
1.64777e-07
1.37395e-07
5.93867e-07
-2.01126e-07
1.22668e-07
1.22668e-07
6.30061e-07
8.08707e-08
1.11437e-07
6.55412e-07
4.0059e-08
1.03915e-07
6.7179e-07
1.7708e-17
1.00227e-07
6.79881e-07
-4.0059e-08
1.00227e-07
6.79881e-07
-8.08707e-08
1.03915e-07
6.7179e-07
-1.22668e-07
1.11437e-07
6.55412e-07
-1.64777e-07
1.22668e-07
6.30061e-07
1.37395e-07
5.93867e-07
-2.01126e-07
1.51362e-07
9.10716e-08
6.25208e-07
-1.90816e-07
1.11437e-07
8.08707e-08
6.55412e-07
7.29905e-08
7.29905e-08
6.76767e-07
3.60463e-08
6.76983e-08
6.90723e-07
2.05337e-16
6.50872e-08
6.97664e-07
-3.60463e-08
6.50872e-08
6.97664e-07
-7.29905e-08
6.76983e-08
6.90723e-07
-1.11437e-07
7.29905e-08
6.76767e-07
-1.51362e-07
8.08707e-08
6.55412e-07
9.10716e-08
6.25208e-07
-1.90816e-07
1.42396e-07
4.52155e-08
6.45349e-07
-1.82177e-07
1.03915e-07
4.0059e-08
6.7179e-07
6.76983e-08
3.60463e-08
6.90723e-07
3.33379e-08
3.33379e-08
7.03224e-07
6.64622e-17
3.19965e-08
7.09471e-07
-3.33379e-08
3.19965e-08
7.09471e-07
-6.76983e-08
3.33379e-08
7.03224e-07
-1.03915e-07
3.60463e-08
6.90723e-07
-1.42396e-07
4.0059e-08
6.7179e-07
4.52155e-08
6.45349e-07
-1.82177e-07
1.38077e-07
1.1207e-16
6.55252e-07
-1.78184e-07
1.00227e-07
5.69451e-17
6.79881e-07
6.50872e-08
1.09301e-16
6.97664e-07
3.19965e-08
5.63154e-17
7.09471e-07
-1.68138e-16
-1.48679e-16
7.15386e-07
-3.19965e-08
3.03597e-17
7.15386e-07
-6.50872e-08
1.42132e-16
7.09471e-07
-1.00227e-07
2.06288e-17
6.97664e-07
-1.38077e-07
-4.00762e-17
6.79881e-07
1.55939e-16
6.55252e-07
-1.78184e-07
1.38077e-07
-4.52155e-08
6.55252e-07
-1.78184e-07
1.00227e-07
-4.0059e-08
6.79881e-07
6.50872e-08
-3.60463e-08
6.97664e-07
3.19965e-08
-3.33379e-08
7.09471e-07
1.3581e-16
-3.19965e-08
7.15386e-07
-3.19965e-08
-3.19965e-08
7.15386e-07
-6.50872e-08
-3.33379e-08
7.09471e-07
-1.00227e-07
-3.60463e-08
6.97664e-07
-1.38077e-07
-4.0059e-08
6.79881e-07
-4.52155e-08
6.55252e-07
-1.78184e-07
1.42396e-07
-9.10716e-08
6.45349e-07
-1.82177e-07
1.03915e-07
-8.08707e-08
6.7179e-07
6.76983e-08
-7.29905e-08
6.90723e-07
3.33379e-08
-6.76983e-08
7.03224e-07
-8.94533e-17
-6.50872e-08
7.09471e-07
-3.33379e-08
-6.50872e-08
7.09471e-07
-6.76983e-08
-6.76983e-08
7.03224e-07
-1.03915e-07
-7.29905e-08
6.90723e-07
-1.42396e-07
-8.08707e-08
6.7179e-07
-9.10716e-08
6.45349e-07
-1.82177e-07
1.51362e-07
-1.37395e-07
6.25208e-07
-1.90816e-07
1.11437e-07
-1.22668e-07
6.55412e-07
7.29905e-08
-1.11437e-07
6.76767e-07
3.60463e-08
-1.03915e-07
6.90723e-07
-3.39377e-16
-1.00227e-07
6.97664e-07
-3.60463e-08
-1.00227e-07
6.97664e-07
-7.29905e-08
-1.03915e-07
6.90723e-07
-1.11437e-07
-1.11437e-07
6.76767e-07
-1.51362e-07
-1.22668e-07
6.55412e-07
-1.37395e-07
6.25208e-07
-1.90816e-07
1.64777e-07
-1.85529e-07
5.93867e-07
-2.01126e-07
1.22668e-07
-1.64777e-07
6.30061e-07
8.08707e-08
-1.51362e-07
6.55412e-07
4.0059e-08
-1.42396e-07
6.7179e-07
-3.67228e-16
-1.38077e-07
6.79881e-07
-4.0059e-08
-1.38077e-07
6.79881e-07
-8.08707e-08
-1.42396e-07
6.7179e-07
-1.22668e-07
-1.51362e-07
6.55412e-07
-1.64777e-07
-1.64777e-07
6.30061e-07
-1.85529e-07
5.93867e-07
-2.01126e-07
1.85529e-07
5.49787e-07
-2.25413e-07
-2.25413e-07
1.37395e-07
5.93867e-07
-2.01126e-07
9.10716e-08
6.25208e-07
-1.90816e-07
4.52155e-08
6.45349e-07
-1.82177e-07
8.52782e-17
6.55252e-07
-1.78184e-07
-4.52155e-08
6.55252e-07
-1.78184e-07
-9.10716e-08
6.45349e-07
-1.82177e-07
-1.37395e-07
6.25208e-07
-1.90816e-07
-1.85529e-07
5.93867e-07
-2.01126e-07
5.49787e-07
-2.25413e-07
-2.25413e-07
1.28827e-07
1.28827e-07
5.864e-07
-1.47134e-07
-1.47134e-07
1.0147e-07
1.26532e-07
6.42408e-07
-1.47716e-07
6.9375e-08
1.23056e-07
6.80975e-07
-1.46727e-07
3.50423e-08
1.19724e-07
7.04842e-07
-1.44885e-07
-2.82479e-16
1.17969e-07
7.16261e-07
-1.43936e-07
-3.50423e-08
1.17969e-07
7.16261e-07
-1.43936e-07
-6.9375e-08
1.19724e-07
7.04842e-07
-1.44885e-07
-1.0147e-07
1.23056e-07
6.80975e-07
-1.46727e-07
-1.28827e-07
1.26532e-07
6.42408e-07
-1.47716e-07
1.28827e-07
5.864e-07
-1.47134e-07
-1.47134e-07
1.26532e-07
1.0147e-07
6.42408e-07
-1.47716e-07
9.76359e-08
9.76359e-08
6.87853e-07
6.57633e-08
9.33219e-08
7.17018e-07
3.29368e-08
8.98159e-08
7.34524e-07
1.07345e-16
8.799e-08
7.42797e-07
-3.29368e-08
8.799e-08
7.42797e-07
-6.57633e-08
8.98159e-08
7.34524e-07
-9.76359e-08
9.3322e-08
7.17018e-07
-1.26532e-07
9.76359e-08
6.87853e-07
1.0147e-07
6.42408e-07
-1.47716e-07
1.23056e-07
6.9375e-08
6.80975e-07
-1.46727e-07
9.33219e-08
6.57633e-08
7.17018e-07
6.21087e-08
6.21087e-08
7.39193e-07
3.09171e-08
5.93579e-08
7.52373e-07
2.65052e-16
5.79499e-08
7.58621e-07
-3.09171e-08
5.79499e-08
7.58621e-07
-6.21087e-08
5.93579e-08
7.52373e-07
-9.33219e-08
6.21087e-08
7.39193e-07
-1.23056e-07
6.57633e-08
7.17018e-07
6.9375e-08
6.80975e-07
-1.46727e-07
1.19724e-07
3.50423e-08
7.04842e-07
-1.44885e-07
8.98159e-08
3.29368e-08
7.34524e-07
5.93579e-08
3.09171e-08
7.52373e-07
2.94469e-08
2.94469e-08
7.63046e-07
1.50532e-16
2.87018e-08
7.68166e-07
-2.94469e-08
2.87018e-08
7.68166e-07
-5.93579e-08
2.94469e-08
7.63046e-07
-8.98159e-08
3.09171e-08
7.52373e-07
-1.19724e-07
3.29368e-08
7.34524e-07
3.50423e-08
7.04842e-07
-1.44885e-07
1.17969e-07
-3.40995e-16
7.16261e-07
-1.43936e-07
8.799e-08
-1.28614e-17
7.42797e-07
5.79499e-08
3.25611e-16
7.58621e-07
2.87018e-08
8.86435e-17
7.68166e-07
-4.79106e-17
-2.12088e-16
7.72789e-07
-2.87018e-08
-1.29165e-16
7.72789e-07
-5.79499e-08
8.38278e-17
7.68166e-07
-8.799e-08
1.60756e-16
7.58621e-07
-1.17969e-07
7.38068e-17
7.42797e-07
9.62027e-17
7.16261e-07
-1.43936e-07
1.17969e-07
-3.50423e-08
7.16261e-07
-1.43936e-07
8.799e-08
-3.29368e-08
7.42797e-07
5.79499e-08
-3.09171e-08
7.58621e-07
2.87018e-08
-2.94469e-08
7.68166e-07
1.35936e-16
-2.87018e-08
7.72789e-07
-2.87018e-08
-2.87018e-08
7.72789e-07
-5.79499e-08
-2.94469e-08
7.68166e-07
-8.799e-08
-3.09171e-08
7.58621e-07
-1.17969e-07
-3.29368e-08
7.42797e-07
-3.50423e-08
7.16261e-07
-1.43936e-07
1.19724e-07
-6.9375e-08
7.04842e-07
-1.44885e-07
8.98159e-08
-6.57633e-08
7.34524e-07
5.93579e-08
-6.21087e-08
7.52373e-07
2.94469e-08
-5.93579e-08
7.63046e-07
-9.45216e-17
-5.79499e-08
7.68166e-07
-2.94469e-08
-5.79499e-08
7.68166e-07
-5.93579e-08
-5.93579e-08
7.63046e-07
-8.98159e-08
-6.21087e-08
7.52373e-07
-1.19724e-07
-6.57633e-08
7.34524e-07
-6.9375e-08
7.04842e-07
-1.44885e-07
1.23056e-07
-1.0147e-07
6.80975e-07
-1.46727e-07
9.33219e-08
-9.76359e-08
7.17018e-07
6.21087e-08
-9.33219e-08
7.39193e-07
3.09171e-08
-8.98159e-08
7.52373e-07
-4.03485e-16
-8.799e-08
7.58621e-07
-3.09171e-08
-8.799e-08
7.58621e-07
-6.21087e-08
-8.98159e-08
7.52373e-07
-9.3322e-08
-9.33219e-08
7.39193e-07
-1.23056e-07
-9.76359e-08
7.17018e-07
-1.0147e-07
6.80975e-07
-1.46727e-07
1.26532e-07
-1.28827e-07
6.42408e-07
-1.47716e-07
9.76359e-08
-1.26532e-07
6.87853e-07
6.57633e-08
-1.23056e-07
7.17018e-07
3.29368e-08
-1.19724e-07
7.34524e-07
-3.50483e-16
-1.17969e-07
7.42797e-07
-3.29368e-08
-1.17969e-07
7.42797e-07
-6.57633e-08
-1.19724e-07
7.34524e-07
-9.76359e-08
-1.23056e-07
7.17018e-07
-1.26532e-07
-1.26532e-07
6.87853e-07
-1.28827e-07
6.42408e-07
-1.47716e-07
1.28827e-07
5.864e-07
-1.47134e-07
-1.47134e-07
1.0147e-07
6.42408e-07
-1.47716e-07
6.9375e-08
6.80975e-07
-1.46727e-07
3.50423e-08
7.04842e-07
-1.44885e-07
2.76682e-16
7.16261e-07
-1.43936e-07
-3.50423e-08
7.16261e-07
-1.43936e-07
-6.9375e-08
7.04842e-07
-1.44885e-07
-1.0147e-07
6.80975e-07
-1.46727e-07
-1.28827e-07
6.42408e-07
-1.47716e-07
5.864e-07
-1.47134e-07
-1.47134e-07
9.65476e-08
9.65476e-08
5.96522e-07
-1.01609e-07
-1.01609e-07
8.0933e-08
1.01885e-07
6.65036e-07
-1.08899e-07
5.76472e-08
1.04001e-07
7.12751e-07
-1.12491e-07
2.98493e-08
1.04333e-07
7.42359e-07
-1.14051e-07
3.13007e-17
1.04286e-07
7.56485e-07
-1.14661e-07
-2.98493e-08
1.04286e-07
7.56485e-07
-1.14661e-07
-5.76472e-08
1.04333e-07
7.42359e-07
-1.14051e-07
-8.0933e-08
1.04001e-07
7.12751e-07
-1.12491e-07
-9.65476e-08
1.01885e-07
6.65036e-07
-1.08899e-07
9.65476e-08
5.96522e-07
-1.01609e-07
-1.01609e-07
1.01885e-07
8.0933e-08
6.65036e-07
-1.08899e-07
8.39352e-08
8.39352e-08
7.23752e-07
5.914e-08
8.45951e-08
7.61219e-07
3.04252e-08
8.41911e-08
7.83381e-07
7.26546e-16
8.38013e-08
7.93707e-07
-3.04252e-08
8.38013e-08
7.93707e-07
-5.914e-08
8.41911e-08
7.83381e-07
-8.39352e-08
8.45951e-08
7.61219e-07
-1.01885e-07
8.39352e-08
7.23752e-07
8.0933e-08
6.65036e-07
-1.08899e-07
1.04001e-07
5.76472e-08
7.12751e-07
-1.12491e-07
8.45951e-08
5.914e-08
7.61219e-07
5.90802e-08
5.90802e-08
7.90223e-07
3.02579e-08
5.85012e-08
8.06885e-07
5.91511e-16
5.80866e-08
8.14594e-07
-3.02579e-08
5.80866e-08
8.14594e-07
-5.90802e-08
5.85012e-08
8.06885e-07
-8.45951e-08
5.90802e-08
7.90223e-07
-1.04001e-07
5.914e-08
7.61219e-07
5.76472e-08
7.12751e-07
-1.12491e-07
1.04333e-07
2.98493e-08
7.42359e-07
-1.14051e-07
8.41911e-08
3.04252e-08
7.83381e-07
5.85012e-08
3.02579e-08
8.06885e-07
2.98902e-08
2.98902e-08
8.20267e-07
1.6207e-16
2.96457e-08
8.26497e-07
-2.98902e-08
2.96457e-08
8.26497e-07
-5.85012e-08
2.98902e-08
8.20267e-07
-8.41911e-08
3.02579e-08
8.06885e-07
-1.04333e-07
3.04252e-08
7.83381e-07
2.98493e-08
7.42359e-07
-1.14051e-07
1.04286e-07
-1.61304e-16
7.56485e-07
-1.14661e-07
8.38013e-08
6.37803e-16
7.93707e-07
5.80866e-08
6.14544e-16
8.14594e-07
2.96457e-08
1.54513e-16
8.26497e-07
1.36045e-16
8.94606e-17
8.3208e-07
-2.96457e-08
2.6752e-16
8.3208e-07
-5.80866e-08
4.28269e-16
8.26497e-07
-8.38013e-08
1.65331e-16
8.14594e-07
-1.04286e-07
-5.00429e-16
7.93707e-07
-4.54504e-16
7.56485e-07
-1.14661e-07
1.04286e-07
-2.98493e-08
7.56485e-07
-1.14661e-07
8.38013e-08
-3.04252e-08
7.93707e-07
5.80866e-08
-3.02579e-08
8.14594e-07
2.96457e-08
-2.98902e-08
8.26497e-07
4.67579e-16
-2.96457e-08
8.3208e-07
-2.96457e-08
-2.96457e-08
8.3208e-07
-5.80866e-08
-2.98902e-08
8.26497e-07
-8.38013e-08
-3.02579e-08
8.14594e-07
-1.04286e-07
-3.04252e-08
7.93707e-07
-2.98493e-08
7.56485e-07
-1.14661e-07
1.04333e-07
-5.76472e-08
7.42359e-07
-1.14051e-07
8.41911e-08
-5.914e-08
7.83381e-07
5.85012e-08
-5.90802e-08
8.06885e-07
2.98902e-08
-5.85012e-08
8.20267e-07
3.0894e-16
-5.80866e-08
8.26497e-07
-2.98902e-08
-5.80866e-08
8.26497e-07
-5.85012e-08
-5.85012e-08
8.20267e-07
-8.41911e-08
-5.90802e-08
8.06885e-07
-1.04333e-07
-5.914e-08
7.83381e-07
-5.76472e-08
7.42359e-07
-1.14051e-07
1.04001e-07
-8.0933e-08
7.12751e-07
-1.12491e-07
8.45951e-08
-8.39352e-08
7.61219e-07
5.90802e-08
-8.45951e-08
7.90223e-07
3.02579e-08
-8.41911e-08
8.06885e-07
-3.37992e-16
-8.38013e-08
8.14594e-07
-3.02579e-08
-8.38013e-08
8.14594e-07
-5.90802e-08
-8.41911e-08
8.06885e-07
-8.45951e-08
-8.45951e-08
7.90223e-07
-1.04001e-07
-8.39352e-08
7.61219e-07
-8.0933e-08
7.12751e-07
-1.12491e-07
1.01885e-07
-9.65476e-08
6.65036e-07
-1.08899e-07
8.39352e-08
-1.01885e-07
7.23752e-07
5.914e-08
-1.04001e-07
7.61219e-07
3.04252e-08
-1.04333e-07
7.83381e-07
-1.21483e-15
-1.04286e-07
7.93707e-07
-3.04252e-08
-1.04286e-07
7.93707e-07
-5.914e-08
-1.04333e-07
7.83381e-07
-8.39352e-08
-1.04001e-07
7.61219e-07
-1.01885e-07
-1.01885e-07
7.23752e-07
-9.65476e-08
6.65036e-07
-1.08899e-07
9.65476e-08
5.96522e-07
-1.01609e-07
-1.01609e-07
8.0933e-08
6.65036e-07
-1.08899e-07
5.76472e-08
7.12751e-07
-1.12491e-07
2.98493e-08
7.42359e-07
-1.14051e-07
-3.53706e-16
7.56485e-07
-1.14661e-07
-2.98493e-08
7.56485e-07
-1.14661e-07
-5.76472e-08
7.42359e-07
-1.14051e-07
-8.0933e-08
7.12751e-07
-1.12491e-07
-9.65476e-08
6.65036e-07
-1.08899e-07
5.96522e-07
-1.01609e-07
-1.01609e-07
4.63026e-08
4.63026e-08
5.95847e-07
-4.59649e-08
-4.59649e-08
4.09567e-08
5.2841e-08
6.70307e-07
-5.27653e-08
3.026e-08
5.69226e-08
7.23292e-07
-5.67661e-08
1.60338e-08
5.91763e-08
7.56655e-07
-5.92467e-08
2.17088e-16
6.01774e-08
7.727e-07
-6.03579e-08
-1.60338e-08
6.01774e-08
7.727e-07
-6.03579e-08
-3.026e-08
5.91763e-08
7.56655e-07
-5.92467e-08
-4.09567e-08
5.69226e-08
7.23292e-07
-5.67661e-08
-4.63026e-08
5.2841e-08
6.70307e-07
-5.27653e-08
4.63026e-08
5.95847e-07
-4.59649e-08
-4.59649e-08
5.2841e-08
4.09567e-08
6.70307e-07
-5.27653e-08
4.60874e-08
4.60874e-08
7.37259e-07
3.38151e-08
4.93097e-08
7.81104e-07
1.78298e-08
5.10361e-08
8.07506e-07
1.49307e-15
5.17825e-08
8.19932e-07
-1.78298e-08
5.17825e-08
8.19932e-07
-3.38151e-08
5.10361e-08
8.07506e-07
-4.60874e-08
4.93097e-08
7.81104e-07
-5.2841e-08
4.60874e-08
7.37259e-07
4.09567e-08
6.70307e-07
-5.27653e-08
5.69226e-08
3.026e-08
7.23292e-07
-5.67661e-08
4.93097e-08
3.38151e-08
7.81104e-07
3.5986e-08
3.5986e-08
8.1687e-07
1.89171e-08
3.71307e-08
8.37859e-07
1.1393e-15
3.76154e-08
8.47678e-07
-1.89171e-08
3.76154e-08
8.47678e-07
-3.5986e-08
3.71307e-08
8.37859e-07
-4.93097e-08
3.5986e-08
8.1687e-07
-5.69226e-08
3.38151e-08
7.81104e-07
3.026e-08
7.23292e-07
-5.67661e-08
5.91763e-08
1.60338e-08
7.56655e-07
-5.92467e-08
5.10361e-08
1.78298e-08
8.07506e-07
3.71307e-08
1.89171e-08
8.37859e-07
1.94888e-08
1.94888e-08
8.55551e-07
6.62981e-16
1.97285e-08
8.63873e-07
-1.94888e-08
1.97285e-08
8.63873e-07
-3.71307e-08
1.94888e-08
8.55551e-07
-5.10361e-08
1.89171e-08
8.37859e-07
-5.91763e-08
1.78298e-08
8.07506e-07
1.60338e-08
7.56655e-07
-5.92467e-08
6.01774e-08
4.24835e-17
7.727e-07
-6.03579e-08
5.17825e-08
1.47335e-15
8.19932e-07
3.76154e-08
1.27046e-15
8.47678e-07
1.97285e-08
7.95693e-16
8.63873e-07
5.92597e-16
6.85284e-16
8.71537e-07
-1.97285e-08
6.67784e-16
8.71537e-07
-3.76154e-08
6.11535e-16
8.63873e-07
-5.17825e-08
2.70732e-16
8.47678e-07
-6.01774e-08
-9.44086e-16
8.19932e-07
-8.6071e-16
7.727e-07
-6.03579e-08
6.01774e-08
-1.60338e-08
7.727e-07
-6.03579e-08
5.17825e-08
-1.78298e-08
8.19932e-07
3.76154e-08
-1.89171e-08
8.47678e-07
1.97285e-08
-1.94888e-08
8.63873e-07
6.38172e-16
-1.97285e-08
8.71537e-07
-1.97285e-08
-1.97285e-08
8.71537e-07
-3.76154e-08
-1.94888e-08
8.63873e-07
-5.17825e-08
-1.89171e-08
8.47678e-07
-6.01774e-08
-1.78298e-08
8.19932e-07
-1.60338e-08
7.727e-07
-6.03579e-08
5.91763e-08
-3.026e-08
7.56655e-07
-5.92467e-08
5.10361e-08
-3.38151e-08
8.07506e-07
3.71307e-08
-3.5986e-08
8.37859e-07
1.94888e-08
-3.71307e-08
8.55551e-07
4.58578e-16
-3.76154e-08
8.63873e-07
-1.94888e-08
-3.76154e-08
8.63873e-07
-3.71307e-08
-3.71307e-08
8.55551e-07
-5.10361e-08
-3.5986e-08
8.37859e-07
-5.91763e-08
-3.38151e-08
8.07506e-07
-3.026e-08
7.56655e-07
-5.92467e-08
5.69226e-08
-4.09567e-08
7.23292e-07
-5.67661e-08
4.93097e-08
-4.60874e-08
7.81104e-07
3.5986e-08
-4.93097e-08
8.1687e-07
1.89171e-08
-5.10361e-08
8.37859e-07
-2.2248e-16
-5.17825e-08
8.47678e-07
-1.89171e-08
-5.17825e-08
8.47678e-07
-3.5986e-08
-5.10361e-08
8.37859e-07
-4.93097e-08
-4.93097e-08
8.1687e-07
-5.69226e-08
-4.60874e-08
7.81104e-07
-4.09567e-08
7.23292e-07
-5.67661e-08
5.2841e-08
-4.63026e-08
6.70307e-07
-5.27653e-08
4.60874e-08
-5.2841e-08
7.37259e-07
3.38151e-08
-5.69226e-08
7.81104e-07
1.78298e-08
-5.91763e-08
8.07506e-07
-1.52154e-15
-6.01774e-08
8.19932e-07
-1.78298e-08
-6.01774e-08
8.19932e-07
-3.38151e-08
-5.91763e-08
8.07506e-07
-4.60874e-08
-5.69226e-08
7.81104e-07
-5.2841e-08
-5.2841e-08
7.37259e-07
-4.63026e-08
6.70307e-07
-5.27653e-08
4.63026e-08
5.95847e-07
-4.59649e-08
-4.59649e-08
4.09567e-08
6.70307e-07
-5.27653e-08
3.026e-08
7.23292e-07
-5.67661e-08
1.60338e-08
7.56655e-07
-5.92467e-08
-6.70817e-16
7.727e-07
-6.03579e-08
-1.60338e-08
7.727e-07
-6.03579e-08
-3.026e-08
7.56655e-07
-5.92467e-08
-4.09567e-08
7.23292e-07
-5.67661e-08
-4.63026e-08
6.70307e-07
-5.27653e-08
5.95847e-07
-4.59649e-08
-4.59649e-08
2.21503e-08
2.21503e-08
5.93435e-07
-2.09443e-08
-2.09443e-08
2.02382e-08
2.62556e-08
6.70609e-07
-2.46462e-08
1.53325e-08
2.91595e-08
7.26242e-07
-2.72044e-08
8.25041e-09
3.09666e-08
7.61648e-07
-2.88768e-08
5.66149e-16
3.18156e-08
7.78787e-07
-2.96518e-08
-8.25041e-09
3.18156e-08
7.78787e-07
-2.96518e-08
-1.53325e-08
3.09666e-08
7.61648e-07
-2.88768e-08
-2.02382e-08
2.91595e-08
7.26242e-07
-2.72044e-08
-2.21503e-08
2.62556e-08
6.70609e-07
-2.46462e-08
2.21503e-08
5.93435e-07
-2.09443e-08
-2.09443e-08
2.62556e-08
2.02382e-08
6.70609e-07
-2.46462e-08
2.39173e-08
2.39173e-08
7.41936e-07
1.80822e-08
2.65287e-08
7.8957e-07
9.70731e-09
2.81171e-08
8.1873e-07
1.13184e-15
2.88583e-08
8.32597e-07
-9.70731e-09
2.88583e-08
8.32597e-07
-1.80822e-08
2.81171e-08
8.1873e-07
-2.39173e-08
2.65287e-08
7.8957e-07
-2.62556e-08
2.39173e-08
7.41936e-07
2.02382e-08
6.70609e-07
-2.46462e-08
2.91595e-08
1.53325e-08
7.26242e-07
-2.72044e-08
2.65287e-08
1.80822e-08
7.8957e-07
2.00156e-08
2.00156e-08
8.29897e-07
1.07259e-08
2.11743e-08
8.54092e-07
8.31e-16
2.1708e-08
8.65554e-07
-1.07258e-08
2.1708e-08
8.65554e-07
-2.00156e-08
2.11743e-08
8.54092e-07
-2.65287e-08
2.00156e-08
8.29897e-07
-2.91595e-08
1.80822e-08
7.8957e-07
1.53325e-08
7.26242e-07
-2.72044e-08
3.09666e-08
8.25041e-09
7.61648e-07
-2.88768e-08
2.81171e-08
9.70731e-09
8.1873e-07
2.11743e-08
1.07259e-08
8.54092e-07
1.13329e-08
1.13329e-08
8.75234e-07
5.22057e-16
1.16103e-08
8.85303e-07
-1.13329e-08
1.16103e-08
8.85303e-07
-2.11743e-08
1.13329e-08
8.75234e-07
-2.81171e-08
1.07258e-08
8.54092e-07
-3.09666e-08
9.70731e-09
8.1873e-07
8.25041e-09
7.61648e-07
-2.88768e-08
3.18156e-08
3.78617e-16
7.78787e-07
-2.96518e-08
2.88583e-08
1.2845e-15
8.32597e-07
2.1708e-08
1.27844e-15
8.65554e-07
1.16103e-08
9.58165e-16
8.85303e-07
5.79226e-16
8.71646e-16
8.94758e-07
-1.16103e-08
1.01388e-15
8.94758e-07
-2.1708e-08
9.6513e-16
8.85303e-07
-2.88582e-08
6.49096e-16
8.65554e-07
-3.18156e-08
-3.57853e-16
8.32597e-07
-6.93832e-16
7.78787e-07
-2.96518e-08
3.18156e-08
-8.25041e-09
7.78787e-07
-2.96518e-08
2.88583e-08
-9.70731e-09
8.32597e-07
2.1708e-08
-1.07258e-08
8.65554e-07
1.16103e-08
-1.13329e-08
8.85303e-07
7.41546e-16
-1.16103e-08
8.94758e-07
-1.16103e-08
-1.16103e-08
8.94758e-07
-2.1708e-08
-1.13329e-08
8.85303e-07
-2.88582e-08
-1.07258e-08
8.65554e-07
-3.18156e-08
-9.70731e-09
8.32597e-07
-8.25041e-09
7.78787e-07
-2.96518e-08
3.09666e-08
-1.53325e-08
7.61648e-07
-2.88768e-08
2.81171e-08
-1.80822e-08
8.1873e-07
2.11743e-08
-2.00156e-08
8.54092e-07
1.13329e-08
-2.11743e-08
8.75234e-07
6.39637e-16
-2.1708e-08
8.85303e-07
-1.13329e-08
-2.1708e-08
8.85303e-07
-2.11743e-08
-2.11743e-08
8.75234e-07
-2.81171e-08
-2.00156e-08
8.54092e-07
-3.09666e-08
-1.80822e-08
8.1873e-07
-1.53325e-08
7.61648e-07
-2.88768e-08
2.91595e-08
-2.02382e-08
7.26242e-07
-2.72044e-08
2.65287e-08
-2.39173e-08
7.8957e-07
2.00156e-08
-2.65287e-08
8.29897e-07
1.07258e-08
-2.81171e-08
8.54092e-07
1.5079e-17
-2.88582e-08
8.65554e-07
-1.07258e-08
-2.88582e-08
8.65554e-07
-2.00156e-08
-2.81171e-08
8.54092e-07
-2.65287e-08
-2.65287e-08
8.29897e-07
-2.91595e-08
-2.39173e-08
7.8957e-07
-2.02382e-08
7.26242e-07
-2.72044e-08
2.62556e-08
-2.21503e-08
6.70609e-07
-2.46462e-08
2.39173e-08
-2.62556e-08
7.41936e-07
1.80822e-08
-2.91595e-08
7.8957e-07
9.70731e-09
-3.09666e-08
8.1873e-07
-1.0179e-15
-3.18156e-08
8.32597e-07
-9.70731e-09
-3.18156e-08
8.32597e-07
-1.80822e-08
-3.09666e-08
8.1873e-07
-2.39173e-08
-2.91595e-08
7.8957e-07
-2.62556e-08
-2.62556e-08
7.41936e-07
-2.21503e-08
6.70609e-07
-2.46462e-08
2.21503e-08
5.93435e-07
-2.09443e-08
-2.09443e-08
2.02382e-08
6.70609e-07
-2.46462e-08
1.53325e-08
7.26242e-07
-2.72044e-08
8.25041e-09
7.61648e-07
-2.88768e-08
-4.77727e-16
7.78787e-07
-2.96518e-08
-8.25041e-09
7.78787e-07
-2.96518e-08
-1.53325e-08
7.61648e-07
-2.88768e-08
-2.02382e-08
7.26242e-07
-2.72044e-08
-2.21503e-08
6.70609e-07
-2.46462e-08
5.93435e-07
-2.09444e-08
-2.09444e-08
8.56398e-09
8.56398e-09
5.91322e-07
-7.50736e-09
-7.50736e-09
8.28708e-09
1.09174e-08
6.69352e-07
-9.38365e-09
6.53293e-09
1.27451e-08
7.2606e-07
-1.08084e-08
3.59945e-09
1.39747e-08
7.62411e-07
-1.18048e-08
2.93419e-16
1.45765e-08
7.80093e-07
-1.22838e-08
-3.59945e-09
1.45765e-08
7.80093e-07
-1.22838e-08
-6.53293e-09
1.39747e-08
7.62411e-07
-1.18048e-08
-8.28708e-09
1.27451e-08
7.2606e-07
-1.08084e-08
-8.56398e-09
1.09174e-08
6.69352e-07
-9.38365e-09
8.56397e-09
5.91322e-07
-7.50736e-09
-7.50736e-09
1.09174e-08
8.28708e-09
6.69352e-07
-9.38365e-09
1.05957e-08
1.05957e-08
7.42579e-07
8.35438e-09
1.23895e-08
7.92167e-07
4.59496e-09
1.35664e-08
8.22898e-07
1.21446e-15
1.41395e-08
8.37629e-07
-4.59496e-09
1.41395e-08
8.37629e-07
-8.35437e-09
1.35664e-08
8.22898e-07
-1.05957e-08
1.23895e-08
7.92167e-07
-1.09174e-08
1.05957e-08
7.42579e-07
8.28708e-09
6.69352e-07
-9.38365e-09
1.27451e-08
6.53293e-09
7.2606e-07
-1.08084e-08
1.23895e-08
8.35438e-09
7.92167e-07
9.75587e-09
9.75586e-09
8.35164e-07
5.35443e-09
1.06586e-08
8.61401e-07
1.06893e-15
1.10928e-08
8.73955e-07
-5.35443e-09
1.10928e-08
8.73955e-07
-9.75586e-09
1.06586e-08
8.61401e-07
-1.23895e-08
9.75586e-09
8.35164e-07
-1.27451e-08
8.35437e-09
7.92167e-07
6.53293e-09
7.2606e-07
-1.08084e-08
1.39747e-08
3.59945e-09
7.62411e-07
-1.18048e-08
1.35664e-08
4.59496e-09
8.22898e-07
1.06586e-08
5.35443e-09
8.61401e-07
5.83915e-09
5.83915e-09
8.84873e-07
7.11268e-16
6.07048e-09
8.96165e-07
-5.83915e-09
6.07048e-09
8.96165e-07
-1.06586e-08
5.83915e-09
8.84873e-07
-1.35664e-08
5.35443e-09
8.61401e-07
-1.39747e-08
4.59496e-09
8.22898e-07
3.59945e-09
7.62411e-07
-1.18048e-08
1.45765e-08
6.00109e-17
7.80093e-07
-1.22838e-08
1.41395e-08
9.89535e-16
8.37629e-07
1.10928e-08
9.66486e-16
8.73955e-07
6.07048e-09
8.57356e-16
8.96165e-07
6.66273e-16
8.34565e-16
9.06899e-07
-6.07047e-09
8.92564e-16
9.06899e-07
-1.10928e-08
7.29764e-16
8.96165e-07
-1.41395e-08
4.42079e-16
8.73955e-07
-1.45765e-08
-1.69953e-16
8.37629e-07
-1.39465e-16
7.80093e-07
-1.22838e-08
1.45765e-08
-3.59945e-09
7.80093e-07
-1.22838e-08
1.41395e-08
-4.59496e-09
8.37629e-07
1.10928e-08
-5.35443e-09
8.73955e-07
6.07048e-09
-5.83915e-09
8.96165e-07
7.10607e-16
-6.07047e-09
9.06899e-07
-6.07047e-09
-6.07047e-09
9.06899e-07
-1.10928e-08
-5.83915e-09
8.96165e-07
-1.41395e-08
-5.35443e-09
8.73955e-07
-1.45765e-08
-4.59496e-09
8.37629e-07
-3.59945e-09
7.80093e-07
-1.22838e-08
1.39747e-08
-6.53293e-09
7.62411e-07
-1.18048e-08
1.35664e-08
-8.35437e-09
8.22898e-07
1.06586e-08
-9.75586e-09
8.61401e-07
5.83915e-09
-1.06586e-08
8.84873e-07
5.4774e-16
-1.10928e-08
8.96165e-07
-5.83915e-09
-1.10928e-08
8.96165e-07
-1.06586e-08
-1.06586e-08
8.84873e-07
-1.35664e-08
-9.75586e-09
8.61401e-07
-1.39747e-08
-8.35437e-09
8.22898e-07
-6.53293e-09
7.62411e-07
-1.18048e-08
1.27451e-08
-8.28708e-09
7.2606e-07
-1.08084e-08
1.23895e-08
-1.05957e-08
7.92167e-07
9.75586e-09
-1.23895e-08
8.35164e-07
5.35443e-09
-1.35664e-08
8.61401e-07
1.8886e-17
-1.41395e-08
8.73955e-07
-5.35443e-09
-1.41395e-08
8.73955e-07
-9.75586e-09
-1.35664e-08
8.61401e-07
-1.23895e-08
-1.23895e-08
8.35164e-07
-1.27451e-08
-1.05957e-08
7.92167e-07
-8.28708e-09
7.2606e-07
-1.08084e-08
1.09174e-08
-8.56397e-09
6.69352e-07
-9.38365e-09
1.05957e-08
-1.09174e-08
7.42579e-07
8.35437e-09
-1.27451e-08
7.92167e-07
4.59496e-09
-1.39747e-08
8.22898e-07
-7.04918e-16
-1.45765e-08
8.37629e-07
-4.59496e-09
-1.45765e-08
8.37629e-07
-8.35437e-09
-1.39747e-08
8.22898e-07
-1.05957e-08
-1.27451e-08
7.92167e-07
-1.09174e-08
-1.09174e-08
7.42579e-07
-8.56397e-09
6.69352e-07
-9.38365e-09
8.56398e-09
5.91322e-07
-7.50736e-09
-7.50736e-09
8.28708e-09
6.69352e-07
-9.38365e-09
6.53293e-09
7.2606e-07
-1.08084e-08
3.59945e-09
7.62411e-07
-1.18048e-08
-3.47788e-17
7.80093e-07
-1.22838e-08
-3.59945e-09
7.80093e-07
-1.22838e-08
-6.53293e-09
7.62411e-07
-1.18048e-08
-8.28708e-09
7.2606e-07
-1.08084e-08
-8.56398e-09
6.69352e-07
-9.38365e-09
5.91322e-07
-7.50736e-09
-7.50736e-09
2.72315e-09
2.72314e-09
5.90212e-07
-2.16821e-09
-2.16821e-09
2.82446e-09
3.79788e-09
6.68381e-07
-2.92801e-09
2.33006e-09
4.7057e-09
7.25403e-07
-3.5549e-09
1.31821e-09
5.35777e-09
7.62091e-07
-4.02532e-09
4.77518e-16
5.68712e-09
7.79982e-07
-4.25772e-09
-1.31821e-09
5.68712e-09
7.79982e-07
-4.25772e-09
-2.33006e-09
5.35777e-09
7.62091e-07
-4.02532e-09
-2.82446e-09
4.7057e-09
7.25403e-07
-3.5549e-09
-2.72314e-09
3.79788e-09
6.68381e-07
-2.92801e-09
2.72315e-09
5.90212e-07
-2.16821e-09
-2.16821e-09
3.79788e-09
2.82446e-09
6.68381e-07
-2.92801e-09
3.96847e-09
3.96847e-09
7.42238e-07
3.27935e-09
4.93137e-09
7.92631e-07
1.85174e-09
5.60304e-09
8.24081e-07
8.64473e-16
5.94059e-09
8.39227e-07
-1.85174e-09
5.94059e-09
8.39227e-07
-3.27935e-09
5.60304e-09
8.24081e-07
-3.96847e-09
4.93137e-09
7.92631e-07
-3.79788e-09
3.96847e-09
7.42238e-07
2.82446e-09
6.68381e-07
-2.92801e-09
4.7057e-09
2.33006e-09
7.25403e-07
-3.5549e-09
4.93137e-09
3.27935e-09
7.92631e-07
4.06716e-09
4.06716e-09
8.36892e-07
2.28928e-09
4.60489e-09
8.64177e-07
7.62457e-16
4.87197e-09
8.77313e-07
-2.28928e-09
4.87197e-09
8.77313e-07
-4.06716e-09
4.60489e-09
8.64177e-07
-4.93137e-09
4.06716e-09
8.36892e-07
-4.7057e-09
3.27935e-09
7.92631e-07
2.33006e-09
7.25403e-07
-3.5549e-09
5.35777e-09
1.31821e-09
7.62091e-07
-4.02532e-09
5.60304e-09
1.85174e-09
8.24081e-07
4.60489e-09
2.28928e-09
8.64177e-07
2.58446e-09
2.58446e-09
8.88914e-07
6.2439e-16
2.72992e-09
9.00891e-07
-2.58446e-09
2.72992e-09
9.00891e-07
-4.60489e-09
2.58446e-09
8.88914e-07
-5.60304e-09
2.28928e-09
8.64177e-07
-5.35777e-09
1.85174e-09
8.24081e-07
1.31821e-09
7.62091e-07
-4.02532e-09
5.68712e-09
-1.78224e-17
7.79982e-07
-4.25772e-09
5.94059e-09
3.42681e-16
8.39227e-07
4.87197e-09
7.64511e-16
8.77313e-07
2.72992e-09
8.29124e-16
9.00891e-07
6.63958e-16
8.38676e-16
9.12359e-07
-2.72992e-09
8.31362e-16
9.12359e-07
-4.87197e-09
5.95871e-16
9.00891e-07
-5.94059e-09
3.5784e-16
8.77313e-07
-5.68712e-09
1.4276e-16
8.39227e-07
1.14831e-16
7.79982e-07
-4.25772e-09
5.68712e-09
-1.31821e-09
7.79982e-07
-4.25772e-09
5.94059e-09
-1.85174e-09
8.39227e-07
4.87197e-09
-2.28928e-09
8.77313e-07
2.72992e-09
-2.58445e-09
9.00891e-07
6.05253e-16
-2.72992e-09
9.12359e-07
-2.72992e-09
-2.72992e-09
9.12359e-07
-4.87197e-09
-2.58446e-09
9.00891e-07
-5.94059e-09
-2.28928e-09
8.77313e-07
-5.68712e-09
-1.85174e-09
8.39227e-07
-1.31821e-09
7.79982e-07
-4.25772e-09
5.35777e-09
-2.33006e-09
7.62091e-07
-4.02532e-09
5.60304e-09
-3.27935e-09
8.24081e-07
4.60489e-09
-4.06716e-09
8.64177e-07
2.58446e-09
-4.60489e-09
8.88914e-07
3.36503e-16
-4.87197e-09
9.00891e-07
-2.58446e-09
-4.87197e-09
9.00891e-07
-4.60489e-09
-4.60489e-09
8.88914e-07
-5.60304e-09
-4.06716e-09
8.64177e-07
-5.35777e-09
-3.27935e-09
8.24081e-07
-2.33006e-09
7.62091e-07
-4.02532e-09
4.7057e-09
-2.82446e-09
7.25403e-07
-3.5549e-09
4.93137e-09
-3.96847e-09
7.92631e-07
4.06716e-09
-4.93137e-09
8.36892e-07
2.28928e-09
-5.60304e-09
8.64177e-07
-1.22152e-16
-5.94059e-09
8.77313e-07
-2.28928e-09
-5.94059e-09
8.77313e-07
-4.06716e-09
-5.60304e-09
8.64177e-07
-4.93137e-09
-4.93137e-09
8.36892e-07
-4.7057e-09
-3.96847e-09
7.92631e-07
-2.82446e-09
7.25403e-07
-3.5549e-09
3.79788e-09
-2.72314e-09
6.68381e-07
-2.92801e-09
3.96846e-09
-3.79788e-09
7.42238e-07
3.27935e-09
-4.7057e-09
7.92631e-07
1.85174e-09
-5.35777e-09
8.24081e-07
-5.35929e-16
-5.68712e-09
8.39227e-07
-1.85174e-09
-5.68712e-09
8.39227e-07
-3.27935e-09
-5.35777e-09
8.24081e-07
-3.96847e-09
-4.7057e-09
7.92631e-07
-3.79788e-09
-3.79788e-09
7.42238e-07
-2.72314e-09
6.68381e-07
-2.92801e-09
2.72315e-09
5.90212e-07
-2.16821e-09
-2.16821e-09
2.82446e-09
6.68381e-07
-2.92801e-09
2.33005e-09
7.25403e-07
-3.5549e-09
1.31821e-09
7.62091e-07
-4.02532e-09
-1.4141e-16
7.79982e-07
-4.25772e-09
-1.31821e-09
7.79982e-07
-4.25772e-09
-2.33006e-09
7.62091e-07
-4.02532e-09
-2.82446e-09
7.25403e-07
-3.5549e-09
-2.72314e-09
6.68381e-07
-2.92801e-09
5.90212e-07
-2.16821e-09
-2.16821e-09
7.25962e-10
7.25961e-10
5.8973e-07
-4.85081e-10
-4.85081e-10
8.32604e-10
1.14694e-09
6.6788e-07
-7.52358e-10
7.2928e-10
1.52663e-09
7.24971e-07
-9.91294e-10
4.26138e-10
1.81318e-09
7.61759e-07
-1.17884e-09
2.16193e-16
1.96116e-09
7.79721e-07
-1.27361e-09
-4.26138e-10
1.96116e-09
7.79721e-07
-1.27361e-09
-7.2928e-10
1.81318e-09
7.61759e-07
-1.17884e-09
-8.32603e-10
1.52663e-09
7.24971e-07
-9.91294e-10
-7.2596e-10
1.14694e-09
6.6788e-07
-7.52357e-10
7.25961e-10
5.8973e-07
-4.85081e-10
-4.85081e-10
1.14694e-09
8.32603e-10
6.6788e-07
-7.52358e-10
1.31278e-09
1.31278e-09
7.41906e-07
1.14329e-09
1.74138e-09
7.92585e-07
6.63865e-10
2.05437e-09
8.24319e-07
6.0616e-16
2.21519e-09
8.39637e-07
-6.63864e-10
2.21519e-09
8.39637e-07
-1.14328e-09
2.05436e-09
8.24319e-07
-1.31278e-09
1.74138e-09
7.92585e-07
-1.14693e-09
1.31278e-09
7.41906e-07
8.32604e-10
6.6788e-07
-7.52357e-10
1.52663e-09
7.2928e-10
7.24971e-07
-9.91294e-10
1.74138e-09
1.14329e-09
7.92585e-07
1.50708e-09
1.50708e-09
8.37361e-07
8.69911e-10
1.7665e-09
8.65102e-07
5.38957e-16
1.89825e-09
8.785e-07
-8.6991e-10
1.89825e-09
8.785e-07
-1.50708e-09
1.76649e-09
8.65102e-07
-1.74138e-09
1.50708e-09
8.37361e-07
-1.52663e-09
1.14329e-09
7.92585e-07
7.2928e-10
7.24971e-07
-9.91294e-10
1.81318e-09
4.26139e-10
7.61759e-07
-1.17884e-09
2.05437e-09
6.63865e-10
8.24319e-07
1.7665e-09
8.69911e-10
8.65102e-07
1.01497e-09
1.01497e-09
8.90417e-07
4.5974e-16
1.08808e-09
9.02716e-07
-1.01497e-09
1.08808e-09
9.02716e-07
-1.76649e-09
1.01497e-09
8.90417e-07