/*--------------------------------*- C++ -*----------------------------------*\
| =========                 |                                                 |
| \\      /  F ield         | OpenFOAM: The Open Source CFD Toolbox           |
|  \\    /   O peration     | Version:  2412                                  |
|   \\  /    A nd           | Website:  www.openfoam.com                      |
|    \\/     M anipulation  |                                                 |
\*---------------------------------------------------------------------------*/
FoamFile
{
    version     2.0;
    format      ascii;
    arch        "LSB;label=32;scalar=64";
    class       volVectorField;
    location    "7.3";
    object      U;
}
// * * * * * * * * * * * * * * * * * * * * * * * * * * * * * * * * * * * * * //

dimensions      [0 1 -1 0 0 0 0];

internalField   nonuniform List<vector> 
15000
(
(0.00121564 0.00121564 0.0104007)
(0.000899722 0.00113947 0.0103551)
(0.000614124 0.00111388 0.0103161)
(0.0003609 0.00108821 0.0102901)
(0.000118595 0.00107635 0.010278)
(-0.000118595 0.00107635 0.010278)
(-0.0003609 0.00108821 0.0102901)
(-0.000614124 0.00111388 0.0103161)
(-0.000899722 0.00113947 0.0103551)
(-0.00121564 0.00121564 0.0104007)
(0.00113947 0.000899722 0.0103551)
(0.000849599 0.000849599 0.0102945)
(0.000582219 0.000813077 0.010254)
(0.000339793 0.000786857 0.0102313)
(0.000111516 0.000774056 0.0102215)
(-0.000111516 0.000774056 0.0102215)
(-0.000339793 0.000786857 0.0102313)
(-0.000582219 0.000813077 0.010254)
(-0.000849599 0.000849599 0.0102945)
(-0.00113947 0.000899722 0.0103551)
(0.00111388 0.000614124 0.0103161)
(0.000813077 0.000582219 0.010254)
(0.000552797 0.000552797 0.0102189)
(0.000320661 0.000531226 0.0102007)
(0.000104983 0.000520309 0.0101929)
(-0.000104983 0.000520309 0.0101929)
(-0.000320661 0.000531226 0.0102007)
(-0.000552797 0.000552797 0.0102189)
(-0.000813077 0.000582219 0.010254)
(-0.00111388 0.000614124 0.0103161)
(0.00108821 0.0003609 0.0102901)
(0.000786857 0.000339793 0.0102313)
(0.000531226 0.000320661 0.0102007)
(0.00030661 0.00030661 0.0101849)
(0.000100159 0.00029942 0.0101779)
(-0.000100159 0.00029942 0.0101779)
(-0.00030661 0.00030661 0.0101849)
(-0.000531226 0.000320661 0.0102007)
(-0.000786857 0.000339793 0.0102313)
(-0.00108821 0.0003609 0.0102901)
(0.00107635 0.000118595 0.010278)
(0.000774056 0.000111516 0.0102215)
(0.000520309 0.000104983 0.0101929)
(0.00029942 0.000100159 0.0101779)
(9.76814e-05 9.76814e-05 0.010171)
(-9.76814e-05 9.76814e-05 0.010171)
(-0.00029942 0.000100159 0.0101779)
(-0.000520309 0.000104983 0.0101929)
(-0.000774056 0.000111516 0.0102215)
(-0.00107635 0.000118595 0.010278)
(0.00107635 -0.000118595 0.010278)
(0.000774056 -0.000111516 0.0102215)
(0.000520309 -0.000104983 0.0101929)
(0.00029942 -0.000100159 0.0101779)
(9.76814e-05 -9.76814e-05 0.010171)
(-9.76814e-05 -9.76814e-05 0.010171)
(-0.00029942 -0.000100159 0.0101779)
(-0.000520309 -0.000104983 0.0101929)
(-0.000774056 -0.000111516 0.0102215)
(-0.00107635 -0.000118595 0.010278)
(0.00108821 -0.0003609 0.0102901)
(0.000786857 -0.000339793 0.0102313)
(0.000531226 -0.000320661 0.0102007)
(0.00030661 -0.00030661 0.0101849)
(0.000100159 -0.00029942 0.0101779)
(-0.000100159 -0.00029942 0.0101779)
(-0.00030661 -0.00030661 0.0101849)
(-0.000531226 -0.000320661 0.0102007)
(-0.000786857 -0.000339793 0.0102313)
(-0.00108821 -0.0003609 0.0102901)
(0.00111388 -0.000614124 0.0103161)
(0.000813077 -0.000582219 0.010254)
(0.000552797 -0.000552797 0.0102189)
(0.000320661 -0.000531226 0.0102007)
(0.000104983 -0.000520309 0.0101929)
(-0.000104983 -0.000520309 0.0101929)
(-0.000320661 -0.000531226 0.0102007)
(-0.000552797 -0.000552797 0.0102189)
(-0.000813077 -0.000582219 0.010254)
(-0.00111388 -0.000614124 0.0103161)
(0.00113947 -0.000899722 0.0103551)
(0.000849599 -0.000849599 0.0102945)
(0.000582219 -0.000813077 0.010254)
(0.000339793 -0.000786857 0.0102313)
(0.000111516 -0.000774056 0.0102215)
(-0.000111516 -0.000774056 0.0102215)
(-0.000339793 -0.000786857 0.0102313)
(-0.000582219 -0.000813077 0.010254)
(-0.000849599 -0.000849599 0.0102945)
(-0.00113947 -0.000899722 0.0103551)
(0.00121564 -0.00121564 0.0104007)
(0.000899722 -0.00113947 0.0103551)
(0.000614124 -0.00111388 0.0103161)
(0.0003609 -0.00108821 0.0102901)
(0.000118595 -0.00107635 0.010278)
(-0.000118595 -0.00107635 0.010278)
(-0.0003609 -0.00108821 0.0102901)
(-0.000614124 -0.00111388 0.0103161)
(-0.000899722 -0.00113947 0.0103551)
(-0.00121564 -0.00121564 0.0104007)
(0.000807925 0.000807925 0.0126662)
(0.000640613 0.000855974 0.0126456)
(0.000456946 0.000884449 0.0125597)
(0.000273558 0.000895802 0.0124742)
(9.06146e-05 0.000900869 0.0124251)
(-9.06146e-05 0.000900869 0.0124251)
(-0.000273558 0.000895802 0.0124742)
(-0.000456946 0.000884449 0.0125597)
(-0.000640613 0.000855974 0.0126456)
(-0.000807925 0.000807925 0.0126662)
(0.000855974 0.000640613 0.0126456)
(0.000665749 0.000665749 0.0124937)
(0.000467474 0.000673306 0.012315)
(0.000275999 0.00067236 0.0121776)
(9.10203e-05 0.000671049 0.0121056)
(-9.10203e-05 0.000671049 0.0121056)
(-0.000275999 0.00067236 0.0121776)
(-0.000467475 0.000673306 0.012315)
(-0.000665749 0.000665749 0.0124937)
(-0.000855974 0.000640613 0.0126456)
(0.000884449 0.000456946 0.0125597)
(0.000673306 0.000467474 0.012315)
(0.000466384 0.000466384 0.0120857)
(0.000272863 0.000461856 0.011924)
(8.96822e-05 0.000458964 0.0118424)
(-8.96822e-05 0.000458964 0.0118424)
(-0.000272863 0.000461856 0.011924)
(-0.000466384 0.000466384 0.0120857)
(-0.000673306 0.000467475 0.012315)
(-0.000884449 0.000456946 0.0125597)
(0.000895802 0.000273558 0.0124742)
(0.00067236 0.000275999 0.0121776)
(0.000461856 0.000272863 0.011924)
(0.000268916 0.000268916 0.0117522)
(8.8223e-05 0.000266628 0.0116671)
(-8.8223e-05 0.000266628 0.0116671)
(-0.000268916 0.000268916 0.0117522)
(-0.000461856 0.000272863 0.011924)
(-0.00067236 0.000275999 0.0121776)
(-0.000895803 0.000273558 0.0124742)
(0.000900869 9.06146e-05 0.0124251)
(0.000671049 9.10203e-05 0.0121056)
(0.000458964 8.96822e-05 0.0118424)
(0.000266628 8.8223e-05 0.0116671)
(8.73984e-05 8.73984e-05 0.0115809)
(-8.73984e-05 8.73984e-05 0.0115809)
(-0.000266628 8.8223e-05 0.0116671)
(-0.000458964 8.96822e-05 0.0118424)
(-0.000671049 9.10203e-05 0.0121056)
(-0.000900869 9.06146e-05 0.0124251)
(0.000900869 -9.06146e-05 0.0124251)
(0.000671049 -9.10203e-05 0.0121056)
(0.000458964 -8.96822e-05 0.0118424)
(0.000266628 -8.8223e-05 0.0116671)
(8.73984e-05 -8.73984e-05 0.0115809)
(-8.73984e-05 -8.73984e-05 0.0115809)
(-0.000266628 -8.8223e-05 0.0116671)
(-0.000458964 -8.96822e-05 0.0118424)
(-0.000671049 -9.10203e-05 0.0121056)
(-0.000900869 -9.06146e-05 0.0124251)
(0.000895803 -0.000273558 0.0124742)
(0.00067236 -0.000275999 0.0121776)
(0.000461856 -0.000272863 0.011924)
(0.000268916 -0.000268916 0.0117522)
(8.8223e-05 -0.000266628 0.0116671)
(-8.8223e-05 -0.000266628 0.0116671)
(-0.000268916 -0.000268916 0.0117522)
(-0.000461856 -0.000272863 0.011924)
(-0.00067236 -0.000275999 0.0121776)
(-0.000895802 -0.000273558 0.0124742)
(0.000884449 -0.000456946 0.0125597)
(0.000673306 -0.000467475 0.012315)
(0.000466384 -0.000466384 0.0120857)
(0.000272863 -0.000461856 0.011924)
(8.96822e-05 -0.000458964 0.0118424)
(-8.96822e-05 -0.000458964 0.0118424)
(-0.000272863 -0.000461856 0.011924)
(-0.000466384 -0.000466384 0.0120857)
(-0.000673306 -0.000467474 0.012315)
(-0.000884449 -0.000456946 0.0125597)
(0.000855974 -0.000640613 0.0126456)
(0.000665749 -0.000665749 0.0124937)
(0.000467475 -0.000673306 0.012315)
(0.000275999 -0.00067236 0.0121776)
(9.10203e-05 -0.000671049 0.0121056)
(-9.10203e-05 -0.000671049 0.0121056)
(-0.000275999 -0.00067236 0.0121776)
(-0.000467474 -0.000673306 0.012315)
(-0.000665749 -0.000665749 0.0124937)
(-0.000855974 -0.000640613 0.0126456)
(0.000807925 -0.000807925 0.0126662)
(0.000640613 -0.000855974 0.0126456)
(0.000456946 -0.000884449 0.0125597)
(0.000273558 -0.000895802 0.0124742)
(9.06146e-05 -0.000900869 0.0124251)
(-9.06146e-05 -0.000900869 0.0124251)
(-0.000273558 -0.000895802 0.0124742)
(-0.000456946 -0.000884449 0.0125597)
(-0.000640613 -0.000855974 0.0126456)
(-0.000807925 -0.000807925 0.0126662)
(0.000594912 0.000594912 0.0125238)
(0.00049836 0.000671627 0.0128103)
(0.000375581 0.000723495 0.0129134)
(0.000232323 0.000753825 0.0129306)
(7.82751e-05 0.000768231 0.0129256)
(-7.82751e-05 0.000768231 0.0129256)
(-0.000232323 0.000753825 0.0129306)
(-0.000375581 0.000723495 0.0129134)
(-0.00049836 0.000671627 0.0128103)
(-0.000594912 0.000594912 0.0125238)
(0.000671627 0.00049836 0.0128103)
(0.000559723 0.000559723 0.0129304)
(0.000414854 0.000596248 0.0128896)
(0.000253934 0.000615383 0.0128151)
(8.52703e-05 0.000623855 0.0127668)
(-8.52703e-05 0.000623855 0.0127668)
(-0.000253934 0.000615383 0.0128151)
(-0.000414854 0.000596248 0.0128896)
(-0.000559723 0.000559723 0.0129304)
(-0.000671627 0.00049836 0.0128103)
(0.000723495 0.000375581 0.0129134)
(0.000596248 0.000414854 0.0128896)
(0.000437403 0.000437403 0.0127513)
(0.000265854 0.000448671 0.0126227)
(8.90491e-05 0.000453445 0.0125512)
(-8.90491e-05 0.000453445 0.0125512)
(-0.000265854 0.000448671 0.0126227)
(-0.000437403 0.000437403 0.0127513)
(-0.000596248 0.000414854 0.0128896)
(-0.000723495 0.000375581 0.0129134)
(0.000753825 0.000232323 0.0129306)
(0.000615383 0.000253934 0.0128151)
(0.000448671 0.000265854 0.0126227)
(0.00027172 0.00027172 0.0124679)
(9.08965e-05 0.000274159 0.0123865)
(-9.08965e-05 0.000274159 0.0123865)
(-0.00027172 0.00027172 0.0124679)
(-0.000448671 0.000265854 0.0126227)
(-0.000615383 0.000253934 0.0128151)
(-0.000753825 0.000232323 0.0129306)
(0.000768231 7.82751e-05 0.0129256)
(0.000623855 8.52703e-05 0.0127668)
(0.000453445 8.90491e-05 0.0125512)
(0.000274159 9.08965e-05 0.0123865)
(9.16575e-05 9.16575e-05 0.0123017)
(-9.16575e-05 9.16575e-05 0.0123017)
(-0.000274159 9.08965e-05 0.0123865)
(-0.000453445 8.90491e-05 0.0125512)
(-0.000623855 8.52703e-05 0.0127668)
(-0.000768231 7.82751e-05 0.0129256)
(0.000768231 -7.82751e-05 0.0129256)
(0.000623855 -8.52703e-05 0.0127668)
(0.000453445 -8.90491e-05 0.0125512)
(0.000274159 -9.08965e-05 0.0123865)
(9.16575e-05 -9.16575e-05 0.0123017)
(-9.16575e-05 -9.16575e-05 0.0123017)
(-0.000274159 -9.08965e-05 0.0123865)
(-0.000453445 -8.90491e-05 0.0125512)
(-0.000623855 -8.52703e-05 0.0127668)
(-0.000768231 -7.82751e-05 0.0129256)
(0.000753825 -0.000232323 0.0129306)
(0.000615383 -0.000253934 0.0128151)
(0.000448671 -0.000265854 0.0126227)
(0.00027172 -0.00027172 0.0124679)
(9.08965e-05 -0.000274159 0.0123865)
(-9.08965e-05 -0.000274159 0.0123865)
(-0.00027172 -0.00027172 0.0124679)
(-0.000448671 -0.000265854 0.0126227)
(-0.000615383 -0.000253934 0.0128151)
(-0.000753825 -0.000232323 0.0129306)
(0.000723495 -0.000375581 0.0129134)
(0.000596248 -0.000414854 0.0128896)
(0.000437403 -0.000437403 0.0127513)
(0.000265854 -0.000448671 0.0126227)
(8.90491e-05 -0.000453445 0.0125512)
(-8.90491e-05 -0.000453445 0.0125512)
(-0.000265854 -0.000448671 0.0126227)
(-0.000437403 -0.000437403 0.0127513)
(-0.000596248 -0.000414854 0.0128896)
(-0.000723495 -0.000375581 0.0129134)
(0.000671627 -0.00049836 0.0128103)
(0.000559723 -0.000559723 0.0129304)
(0.000414854 -0.000596248 0.0128896)
(0.000253934 -0.000615383 0.0128151)
(8.52703e-05 -0.000623855 0.0127668)
(-8.52703e-05 -0.000623855 0.0127668)
(-0.000253934 -0.000615383 0.0128151)
(-0.000414854 -0.000596248 0.0128896)
(-0.000559723 -0.000559723 0.0129304)
(-0.000671627 -0.00049836 0.0128103)
(0.000594912 -0.000594912 0.0125238)
(0.00049836 -0.000671627 0.0128103)
(0.000375581 -0.000723495 0.0129134)
(0.000232323 -0.000753825 0.0129306)
(7.82751e-05 -0.000768231 0.0129256)
(-7.82751e-05 -0.000768231 0.0129256)
(-0.000232323 -0.000753825 0.0129306)
(-0.000375581 -0.000723495 0.0129134)
(-0.00049836 -0.000671627 0.0128103)
(-0.000594912 -0.000594912 0.0125238)
(0.000279112 0.000279112 0.0127458)
(0.000244782 0.000340473 0.0131827)
(0.000194144 0.000385023 0.013394)
(0.000123542 0.000414708 0.0134778)
(4.22505e-05 0.000429245 0.0135036)
(-4.22505e-05 0.000429245 0.0135036)
(-0.000123542 0.000414708 0.0134778)
(-0.000194144 0.000385023 0.013394)
(-0.000244782 0.000340473 0.0131827)
(-0.000279112 0.000279112 0.0127458)
(0.000340473 0.000244782 0.0131827)
(0.000300771 0.000300771 0.0134697)
(0.00023417 0.000340221 0.0135321)
(0.000147962 0.00036493 0.0135148)
(5.04796e-05 0.00037686 0.0134915)
(-5.04795e-05 0.00037686 0.0134915)
(-0.000147962 0.00036493 0.0135148)
(-0.00023417 0.000340221 0.0135321)
(-0.000300771 0.000300771 0.0134697)
(-0.000340473 0.000244782 0.0131827)
(0.000385023 0.000194144 0.013394)
(0.000340221 0.00023417 0.0135321)
(0.000263095 0.000263095 0.0134837)
(0.000165509 0.000281155 0.0134011)
(5.6385e-05 0.00028984 0.0133489)
(-5.63849e-05 0.00028984 0.0133489)
(-0.000165509 0.000281155 0.0134011)
(-0.000263095 0.000263095 0.0134837)
(-0.000340221 0.00023417 0.0135321)
(-0.000385023 0.000194144 0.013394)
(0.000414708 0.000123542 0.0134778)
(0.00036493 0.000147962 0.0135148)
(0.000281155 0.000165509 0.0134011)
(0.000176493 0.000176493 0.0132846)
(6.00842e-05 0.000181765 0.0132189)
(-6.00842e-05 0.000181765 0.0132189)
(-0.000176493 0.000176493 0.0132846)
(-0.000281155 0.000165509 0.0134011)
(-0.00036493 0.000147962 0.0135148)
(-0.000414708 0.000123542 0.0134778)
(0.000429245 4.22505e-05 0.0135036)
(0.00037686 5.04796e-05 0.0134915)
(0.00028984 5.6385e-05 0.0133489)
(0.000181765 6.00842e-05 0.0132189)
(6.18564e-05 6.18564e-05 0.0131483)
(-6.18564e-05 6.18564e-05 0.0131483)
(-0.000181765 6.00842e-05 0.0132189)
(-0.00028984 5.63849e-05 0.0133489)
(-0.00037686 5.04795e-05 0.0134915)
(-0.000429245 4.22505e-05 0.0135036)
(0.000429245 -4.22505e-05 0.0135036)
(0.00037686 -5.04795e-05 0.0134915)
(0.00028984 -5.63849e-05 0.0133489)
(0.000181765 -6.00842e-05 0.0132189)
(6.18564e-05 -6.18564e-05 0.0131483)
(-6.18564e-05 -6.18564e-05 0.0131483)
(-0.000181765 -6.00842e-05 0.0132189)
(-0.00028984 -5.63849e-05 0.0133489)
(-0.00037686 -5.04796e-05 0.0134915)
(-0.000429245 -4.22505e-05 0.0135036)
(0.000414708 -0.000123542 0.0134778)
(0.00036493 -0.000147962 0.0135148)
(0.000281155 -0.000165509 0.0134011)
(0.000176493 -0.000176493 0.0132846)
(6.00842e-05 -0.000181765 0.0132189)
(-6.00842e-05 -0.000181765 0.0132189)
(-0.000176493 -0.000176493 0.0132846)
(-0.000281155 -0.000165509 0.0134011)
(-0.00036493 -0.000147962 0.0135148)
(-0.000414708 -0.000123542 0.0134778)
(0.000385023 -0.000194144 0.013394)
(0.000340221 -0.00023417 0.0135321)
(0.000263095 -0.000263095 0.0134837)
(0.000165509 -0.000281155 0.0134011)
(5.63849e-05 -0.00028984 0.0133489)
(-5.63849e-05 -0.00028984 0.0133489)
(-0.000165509 -0.000281155 0.0134011)
(-0.000263095 -0.000263095 0.0134837)
(-0.000340221 -0.00023417 0.0135321)
(-0.000385023 -0.000194144 0.013394)
(0.000340473 -0.000244782 0.0131827)
(0.000300771 -0.000300771 0.0134697)
(0.00023417 -0.000340221 0.0135321)
(0.000147962 -0.00036493 0.0135148)
(5.04795e-05 -0.00037686 0.0134915)
(-5.04796e-05 -0.00037686 0.0134915)
(-0.000147962 -0.00036493 0.0135148)
(-0.00023417 -0.000340221 0.0135321)
(-0.000300771 -0.000300771 0.0134697)
(-0.000340473 -0.000244782 0.0131827)
(0.000279112 -0.000279112 0.0127458)
(0.000244782 -0.000340473 0.0131827)
(0.000194144 -0.000385023 0.013394)
(0.000123542 -0.000414708 0.0134778)
(4.22505e-05 -0.000429245 0.0135036)
(-4.22505e-05 -0.000429245 0.0135036)
(-0.000123542 -0.000414708 0.0134778)
(-0.000194144 -0.000385023 0.013394)
(-0.000244782 -0.000340473 0.0131827)
(-0.000279112 -0.000279112 0.0127458)
(0.000132226 0.000132226 0.01266)
(0.000119044 0.00016578 0.0131871)
(9.79026e-05 0.000192438 0.0134721)
(6.35863e-05 0.000211294 0.0136065)
(2.19821e-05 0.000220747 0.0136578)
(-2.19821e-05 0.000220747 0.0136578)
(-6.35863e-05 0.000211294 0.0136065)
(-9.79026e-05 0.000192438 0.0134721)
(-0.000119044 0.00016578 0.0131871)
(-0.000132226 0.000132226 0.01266)
(0.00016578 0.000119044 0.0131871)
(0.000153516 0.000153516 0.0135915)
(0.000124295 0.000179934 0.0137414)
(8.04604e-05 0.000197659 0.0137814)
(2.77784e-05 0.000206503 0.0137862)
(-2.77784e-05 0.000206503 0.0137862)
(-8.04604e-05 0.000197659 0.0137814)
(-0.000124295 0.000179934 0.0137414)
(-0.000153516 0.000153516 0.0135915)
(-0.00016578 0.000119044 0.0131871)
(0.000192438 9.79026e-05 0.0134721)
(0.000179934 0.000124295 0.0137414)
(0.00014512 0.00014512 0.0137865)
(9.37036e-05 0.00015901 0.0137633)
(3.23227e-05 0.000165912 0.0137399)
(-3.23227e-05 0.000165912 0.0137399)
(-9.37036e-05 0.00015901 0.0137633)
(-0.00014512 0.00014512 0.0137865)
(-0.000179934 0.000124295 0.0137414)
(-0.000192438 9.79027e-05 0.0134721)
(0.000211294 6.35863e-05 0.0136065)
(0.000197659 8.04604e-05 0.0137814)
(0.00015901 9.37036e-05 0.0137633)
(0.000102496 0.000102496 0.0137066)
(3.53318e-05 0.000106842 0.0136696)
(-3.53317e-05 0.000106842 0.0136696)
(-0.000102496 0.000102496 0.0137066)
(-0.00015901 9.37036e-05 0.0137633)
(-0.000197659 8.04604e-05 0.0137814)
(-0.000211294 6.35863e-05 0.0136065)
(0.000220747 2.19821e-05 0.0136578)
(0.000206503 2.77784e-05 0.0137862)
(0.000165912 3.23227e-05 0.0137399)
(0.000106842 3.53318e-05 0.0136696)
(3.68141e-05 3.68141e-05 0.0136275)
(-3.68141e-05 3.68141e-05 0.0136275)
(-0.000106842 3.53318e-05 0.0136696)
(-0.000165912 3.23227e-05 0.0137399)
(-0.000206503 2.77784e-05 0.0137862)
(-0.000220747 2.19821e-05 0.0136578)
(0.000220747 -2.19821e-05 0.0136578)
(0.000206503 -2.77784e-05 0.0137862)
(0.000165912 -3.23227e-05 0.0137399)
(0.000106842 -3.53317e-05 0.0136696)
(3.68141e-05 -3.68141e-05 0.0136275)
(-3.68141e-05 -3.68141e-05 0.0136275)
(-0.000106842 -3.53317e-05 0.0136696)
(-0.000165912 -3.23227e-05 0.0137399)
(-0.000206503 -2.77784e-05 0.0137862)
(-0.000220747 -2.19821e-05 0.0136578)
(0.000211294 -6.35863e-05 0.0136065)
(0.000197659 -8.04604e-05 0.0137814)
(0.00015901 -9.37036e-05 0.0137633)
(0.000102496 -0.000102496 0.0137066)
(3.53318e-05 -0.000106842 0.0136696)
(-3.53317e-05 -0.000106842 0.0136696)
(-0.000102496 -0.000102496 0.0137066)
(-0.00015901 -9.37036e-05 0.0137633)
(-0.000197659 -8.04604e-05 0.0137814)
(-0.000211294 -6.35863e-05 0.0136065)
(0.000192438 -9.79026e-05 0.0134721)
(0.000179934 -0.000124295 0.0137414)
(0.00014512 -0.00014512 0.0137865)
(9.37036e-05 -0.00015901 0.0137633)
(3.23227e-05 -0.000165912 0.0137399)
(-3.23227e-05 -0.000165912 0.0137399)
(-9.37036e-05 -0.00015901 0.0137633)
(-0.00014512 -0.00014512 0.0137865)
(-0.000179934 -0.000124295 0.0137414)
(-0.000192438 -9.79026e-05 0.0134721)
(0.00016578 -0.000119044 0.0131871)
(0.000153516 -0.000153516 0.0135915)
(0.000124295 -0.000179934 0.0137414)
(8.04604e-05 -0.000197659 0.0137814)
(2.77784e-05 -0.000206503 0.0137862)
(-2.77784e-05 -0.000206503 0.0137862)
(-8.04604e-05 -0.000197659 0.0137814)
(-0.000124295 -0.000179934 0.0137414)
(-0.000153516 -0.000153516 0.0135915)
(-0.00016578 -0.000119044 0.0131871)
(0.000132226 -0.000132226 0.01266)
(0.000119044 -0.00016578 0.0131871)
(9.79026e-05 -0.000192438 0.0134721)
(6.35863e-05 -0.000211294 0.0136065)
(2.19821e-05 -0.000220747 0.0136578)
(-2.19821e-05 -0.000220747 0.0136578)
(-6.35863e-05 -0.000211294 0.0136065)
(-9.79026e-05 -0.000192438 0.0134721)
(-0.000119044 -0.00016578 0.0131871)
(-0.000132226 -0.000132226 0.01266)
(4.98003e-05 4.98003e-05 0.0125975)
(4.73864e-05 6.66748e-05 0.013153)
(4.1245e-05 8.10052e-05 0.0134669)
(2.76236e-05 9.17085e-05 0.0136239)
(9.70303e-06 9.71994e-05 0.0136873)
(-9.70303e-06 9.71994e-05 0.0136873)
(-2.76236e-05 9.17085e-05 0.0136239)
(-4.1245e-05 8.10052e-05 0.0134669)
(-4.73864e-05 6.66748e-05 0.013153)
(-4.98003e-05 4.98003e-05 0.0125975)
(6.66748e-05 4.73864e-05 0.013153)
(6.6314e-05 6.6314e-05 0.0136072)
(5.67117e-05 8.1965e-05 0.0138011)
(3.79261e-05 9.30919e-05 0.0138734)
(1.33003e-05 9.88011e-05 0.013895)
(-1.33003e-05 9.88011e-05 0.013895)
(-3.79261e-05 9.30919e-05 0.0138734)
(-5.67117e-05 8.1965e-05 0.0138011)
(-6.6314e-05 6.6314e-05 0.0136072)
(-6.66748e-05 4.73864e-05 0.013153)
(8.10052e-05 4.1245e-05 0.0134669)
(8.1965e-05 5.67117e-05 0.0138011)
(6.9841e-05 6.9841e-05 0.0139011)
(4.65906e-05 7.90592e-05 0.0139166)
(1.63185e-05 8.37601e-05 0.0139129)
(-1.63185e-05 8.37601e-05 0.0139129)
(-4.65906e-05 7.90592e-05 0.0139166)
(-6.9841e-05 6.9841e-05 0.0139011)
(-8.1965e-05 5.67117e-05 0.0138011)
(-8.10052e-05 4.1245e-05 0.0134669)
(9.17085e-05 2.76236e-05 0.0136239)
(9.30919e-05 3.79261e-05 0.0138734)
(7.90592e-05 4.65906e-05 0.0139166)
(5.26113e-05 5.26113e-05 0.013902)
(1.84057e-05 5.56592e-05 0.0138862)
(-1.84057e-05 5.56592e-05 0.0138862)
(-5.26113e-05 5.26113e-05 0.013902)
(-7.90591e-05 4.65906e-05 0.0139166)
(-9.30919e-05 3.79261e-05 0.0138734)
(-9.17085e-05 2.76236e-05 0.0136239)
(9.71994e-05 9.70303e-06 0.0136873)
(9.88011e-05 1.33003e-05 0.013895)
(8.37601e-05 1.63185e-05 0.0139129)
(5.56592e-05 1.84057e-05 0.0138862)
(1.9458e-05 1.9458e-05 0.0138658)
(-1.9458e-05 1.9458e-05 0.0138658)
(-5.56592e-05 1.84057e-05 0.0138862)
(-8.37601e-05 1.63185e-05 0.0139129)
(-9.88011e-05 1.33003e-05 0.013895)
(-9.71994e-05 9.70303e-06 0.0136873)
(9.71994e-05 -9.70303e-06 0.0136873)
(9.88011e-05 -1.33003e-05 0.013895)
(8.37601e-05 -1.63185e-05 0.0139129)
(5.56592e-05 -1.84057e-05 0.0138862)
(1.9458e-05 -1.9458e-05 0.0138658)
(-1.9458e-05 -1.9458e-05 0.0138658)
(-5.56592e-05 -1.84057e-05 0.0138862)
(-8.37601e-05 -1.63185e-05 0.0139129)
(-9.88011e-05 -1.33003e-05 0.013895)
(-9.71994e-05 -9.70303e-06 0.0136873)
(9.17085e-05 -2.76236e-05 0.0136239)
(9.30919e-05 -3.79261e-05 0.0138734)
(7.90592e-05 -4.65906e-05 0.0139166)
(5.26113e-05 -5.26113e-05 0.013902)
(1.84057e-05 -5.56592e-05 0.0138862)
(-1.84057e-05 -5.56592e-05 0.0138862)
(-5.26113e-05 -5.26113e-05 0.013902)
(-7.90591e-05 -4.65906e-05 0.0139166)
(-9.30919e-05 -3.79261e-05 0.0138734)
(-9.17085e-05 -2.76236e-05 0.0136239)
(8.10052e-05 -4.1245e-05 0.0134669)
(8.1965e-05 -5.67117e-05 0.0138011)
(6.9841e-05 -6.9841e-05 0.0139011)
(4.65906e-05 -7.90591e-05 0.0139166)
(1.63185e-05 -8.37601e-05 0.0139129)
(-1.63185e-05 -8.37601e-05 0.0139129)
(-4.65906e-05 -7.90591e-05 0.0139166)
(-6.9841e-05 -6.9841e-05 0.0139011)
(-8.1965e-05 -5.67117e-05 0.0138011)
(-8.10052e-05 -4.1245e-05 0.0134669)
(6.66748e-05 -4.73864e-05 0.013153)
(6.6314e-05 -6.6314e-05 0.0136072)
(5.67117e-05 -8.1965e-05 0.0138011)
(3.79261e-05 -9.30919e-05 0.0138734)
(1.33003e-05 -9.88011e-05 0.013895)
(-1.33003e-05 -9.88011e-05 0.013895)
(-3.79261e-05 -9.30919e-05 0.0138734)
(-5.67117e-05 -8.1965e-05 0.0138011)
(-6.6314e-05 -6.6314e-05 0.0136072)
(-6.66748e-05 -4.73864e-05 0.013153)
(4.98003e-05 -4.98003e-05 0.0125975)
(4.73864e-05 -6.66748e-05 0.013153)
(4.1245e-05 -8.10052e-05 0.0134669)
(2.76236e-05 -9.17085e-05 0.0136239)
(9.70303e-06 -9.71994e-05 0.0136873)
(-9.70303e-06 -9.71994e-05 0.0136873)
(-2.76236e-05 -9.17085e-05 0.0136239)
(-4.1245e-05 -8.10052e-05 0.0134669)
(-4.73864e-05 -6.66748e-05 0.013153)
(-4.98003e-05 -4.98003e-05 0.0125975)
(1.53125e-05 1.53125e-05 0.0125653)
(1.56102e-05 2.22318e-05 0.013129)
(1.45328e-05 2.85455e-05 0.0134537)
(1.00642e-05 3.35341e-05 0.0136203)
(3.60249e-06 3.61515e-05 0.0136891)
(-3.60249e-06 3.61515e-05 0.0136891)
(-1.00642e-05 3.35341e-05 0.0136203)
(-1.45328e-05 2.85455e-05 0.0134537)
(-1.56102e-05 2.22318e-05 0.013129)
(-1.53125e-05 1.53125e-05 0.0125653)
(2.22318e-05 1.56102e-05 0.013129)
(2.41317e-05 2.41317e-05 0.0136027)
(2.19769e-05 3.17375e-05 0.013817)
(1.52217e-05 3.74543e-05 0.0139058)
(5.43038e-06 4.0464e-05 0.0139364)
(-5.43037e-06 4.0464e-05 0.0139364)
(-1.52217e-05 3.74543e-05 0.0139058)
(-2.19769e-05 3.17375e-05 0.013817)
(-2.41317e-05 2.41317e-05 0.0136027)
(-2.22318e-05 1.56102e-05 0.013129)
(2.85455e-05 1.45328e-05 0.0134537)
(3.17375e-05 2.19769e-05 0.013817)
(2.8755e-05 2.8755e-05 0.0139456)
(1.9856e-05 3.3753e-05 0.0139827)
(7.06719e-06 3.6363e-05 0.0139904)
(-7.06718e-06 3.6363e-05 0.0139904)
(-1.9856e-05 3.3753e-05 0.0139827)
(-2.8755e-05 2.8755e-05 0.0139456)
(-3.17375e-05 2.19769e-05 0.013817)
(-2.85455e-05 1.45328e-05 0.0134537)
(3.35341e-05 1.00642e-05 0.0136203)
(3.74543e-05 1.52217e-05 0.0139058)
(3.3753e-05 1.9856e-05 0.0139827)
(2.32237e-05 2.32237e-05 0.0139928)
(8.24952e-06 2.49674e-05 0.0139897)
(-8.24951e-06 2.49674e-05 0.0139897)
(-2.32237e-05 2.32237e-05 0.0139928)
(-3.3753e-05 1.9856e-05 0.0139827)
(-3.74543e-05 1.52217e-05 0.0139058)
(-3.35341e-05 1.00642e-05 0.0136203)
(3.61515e-05 3.60249e-06 0.0136891)
(4.0464e-05 5.43037e-06 0.0139364)
(3.6363e-05 7.06719e-06 0.0139904)
(2.49674e-05 8.24952e-06 0.0139897)
(8.85918e-06 8.85918e-06 0.0139826)
(-8.85917e-06 8.85918e-06 0.0139826)
(-2.49674e-05 8.24952e-06 0.0139897)
(-3.6363e-05 7.06719e-06 0.0139904)
(-4.0464e-05 5.43037e-06 0.0139364)
(-3.61515e-05 3.60249e-06 0.0136891)
(3.61515e-05 -3.60249e-06 0.0136891)
(4.0464e-05 -5.43037e-06 0.0139364)
(3.6363e-05 -7.06718e-06 0.0139904)
(2.49674e-05 -8.24951e-06 0.0139897)
(8.85918e-06 -8.85917e-06 0.0139826)
(-8.85917e-06 -8.85917e-06 0.0139826)
(-2.49674e-05 -8.24951e-06 0.0139897)
(-3.6363e-05 -7.06719e-06 0.0139904)
(-4.0464e-05 -5.43037e-06 0.0139364)
(-3.61515e-05 -3.60249e-06 0.0136891)
(3.35341e-05 -1.00642e-05 0.0136203)
(3.74543e-05 -1.52217e-05 0.0139058)
(3.3753e-05 -1.9856e-05 0.0139827)
(2.32237e-05 -2.32237e-05 0.0139928)
(8.24952e-06 -2.49674e-05 0.0139897)
(-8.24951e-06 -2.49674e-05 0.0139897)
(-2.32237e-05 -2.32237e-05 0.0139928)
(-3.3753e-05 -1.9856e-05 0.0139827)
(-3.74543e-05 -1.52217e-05 0.0139058)
(-3.35341e-05 -1.00642e-05 0.0136203)
(2.85455e-05 -1.45328e-05 0.0134537)
(3.17375e-05 -2.19769e-05 0.013817)
(2.8755e-05 -2.8755e-05 0.0139456)
(1.9856e-05 -3.3753e-05 0.0139827)
(7.06719e-06 -3.6363e-05 0.0139904)
(-7.06719e-06 -3.6363e-05 0.0139904)
(-1.9856e-05 -3.3753e-05 0.0139827)
(-2.8755e-05 -2.8755e-05 0.0139456)
(-3.17375e-05 -2.19769e-05 0.013817)
(-2.85455e-05 -1.45327e-05 0.0134537)
(2.22318e-05 -1.56102e-05 0.013129)
(2.41317e-05 -2.41317e-05 0.0136027)
(2.19769e-05 -3.17375e-05 0.013817)
(1.52217e-05 -3.74543e-05 0.0139058)
(5.43037e-06 -4.0464e-05 0.0139364)
(-5.43037e-06 -4.0464e-05 0.0139364)
(-1.52217e-05 -3.74543e-05 0.0139058)
(-2.19769e-05 -3.17375e-05 0.013817)
(-2.41317e-05 -2.41317e-05 0.0136027)
(-2.22318e-05 -1.56102e-05 0.013129)
(1.53125e-05 -1.53125e-05 0.0125653)
(1.56102e-05 -2.22318e-05 0.013129)
(1.45327e-05 -2.85455e-05 0.0134537)
(1.00642e-05 -3.35341e-05 0.0136203)
(3.60249e-06 -3.61515e-05 0.0136891)
(-3.60249e-06 -3.61515e-05 0.0136891)
(-1.00642e-05 -3.35341e-05 0.0136203)
(-1.45327e-05 -2.85455e-05 0.0134537)
(-1.56102e-05 -2.22318e-05 0.013129)
(-1.53125e-05 -1.53125e-05 0.0125653)
(3.86862e-06 3.86863e-06 0.01255)
(4.38737e-06 6.32485e-06 0.013115)
(4.48251e-06 8.71424e-06 0.0134429)
(3.23601e-06 1.07072e-05 0.0136128)
(1.18659e-06 1.17725e-05 0.0136837)
(-1.18659e-06 1.17725e-05 0.0136837)
(-3.23601e-06 1.07072e-05 0.0136128)
(-4.48251e-06 8.71424e-06 0.0134429)
(-4.38737e-06 6.32484e-06 0.013115)
(-3.86862e-06 3.86862e-06 0.01255)
(6.32485e-06 4.38737e-06 0.013115)
(7.7067e-06 7.7067e-06 0.0135949)
(7.55251e-06 1.08648e-05 0.0138174)
(5.43246e-06 1.33508e-05 0.0139132)
(1.97444e-06 1.4687e-05 0.013948)
(-1.97444e-06 1.46869e-05 0.013948)
(-5.43246e-06 1.33508e-05 0.0139132)
(-7.55251e-06 1.08648e-05 0.0138174)
(-7.7067e-06 7.7067e-06 0.0135949)
(-6.32484e-06 4.38737e-06 0.013115)
(8.71424e-06 4.48251e-06 0.0134429)
(1.08648e-05 7.55251e-06 0.0138174)
(1.05153e-05 1.05153e-05 0.0139586)
(7.5186e-06 1.27919e-05 0.014006)
(2.71965e-06 1.40038e-05 0.0140193)
(-2.71964e-06 1.40038e-05 0.0140193)
(-7.51859e-06 1.27919e-05 0.014006)
(-1.05153e-05 1.05153e-05 0.0139586)
(-1.08648e-05 7.55252e-06 0.0138174)
(-8.71424e-06 4.48251e-06 0.0134429)
(1.07072e-05 3.236e-06 0.0136128)
(1.33508e-05 5.43246e-06 0.0139132)
(1.27919e-05 7.5186e-06 0.014006)
(9.09462e-06 9.09462e-06 0.0140284)
(3.27895e-06 9.92607e-06 0.014032)
(-3.27894e-06 9.92607e-06 0.014032)
(-9.09461e-06 9.09462e-06 0.0140284)
(-1.27919e-05 7.5186e-06 0.014006)
(-1.33508e-05 5.43246e-06 0.0139132)
(-1.07072e-05 3.23601e-06 0.0136128)
(1.17725e-05 1.18659e-06 0.0136837)
(1.46869e-05 1.97444e-06 0.013948)
(1.40038e-05 2.71965e-06 0.0140193)
(9.92607e-06 3.27895e-06 0.014032)
(3.57284e-06 3.57284e-06 0.0140319)
(-3.57283e-06 3.57284e-06 0.0140319)
(-9.92606e-06 3.27895e-06 0.014032)
(-1.40038e-05 2.71965e-06 0.0140193)
(-1.46869e-05 1.97444e-06 0.013948)
(-1.17725e-05 1.18659e-06 0.0136837)
(1.17725e-05 -1.18659e-06 0.0136837)
(1.46869e-05 -1.97444e-06 0.013948)
(1.40038e-05 -2.71964e-06 0.0140193)
(9.92607e-06 -3.27894e-06 0.014032)
(3.57284e-06 -3.57283e-06 0.0140319)
(-3.57283e-06 -3.57283e-06 0.0140319)
(-9.92606e-06 -3.27894e-06 0.014032)
(-1.40038e-05 -2.71964e-06 0.0140193)
(-1.46869e-05 -1.97444e-06 0.013948)
(-1.17725e-05 -1.18659e-06 0.0136837)
(1.07072e-05 -3.23601e-06 0.0136128)
(1.33508e-05 -5.43246e-06 0.0139132)
(1.27919e-05 -7.51859e-06 0.014006)
(9.09462e-06 -9.09461e-06 0.0140284)
(3.27895e-06 -9.92606e-06 0.014032)
(-3.27894e-06 -9.92606e-06 0.014032)
(-9.09461e-06 -9.09461e-06 0.0140284)
(-1.27919e-05 -7.51859e-06 0.014006)
(-1.33508e-05 -5.43245e-06 0.0139132)
(-1.07072e-05 -3.236e-06 0.0136128)
(8.71424e-06 -4.48251e-06 0.0134429)
(1.08648e-05 -7.55251e-06 0.0138174)
(1.05153e-05 -1.05153e-05 0.0139586)
(7.5186e-06 -1.27919e-05 0.014006)
(2.71964e-06 -1.40038e-05 0.0140193)
(-2.71964e-06 -1.40038e-05 0.0140193)
(-7.51859e-06 -1.27919e-05 0.014006)
(-1.05153e-05 -1.05153e-05 0.0139586)
(-1.08648e-05 -7.5525e-06 0.0138174)
(-8.71424e-06 -4.4825e-06 0.0134429)
(6.32484e-06 -4.38737e-06 0.013115)
(7.7067e-06 -7.7067e-06 0.0135949)
(7.55251e-06 -1.08648e-05 0.0138174)
(5.43246e-06 -1.33508e-05 0.0139132)
(1.97444e-06 -1.46869e-05 0.013948)
(-1.97444e-06 -1.46869e-05 0.013948)
(-5.43246e-06 -1.33508e-05 0.0139132)
(-7.5525e-06 -1.08648e-05 0.0138174)
(-7.70669e-06 -7.7067e-06 0.0135949)
(-6.32485e-06 -4.38736e-06 0.013115)
(3.86862e-06 -3.86863e-06 0.01255)
(4.38736e-06 -6.32484e-06 0.013115)
(4.48251e-06 -8.71424e-06 0.0134429)
(3.23601e-06 -1.07072e-05 0.0136128)
(1.18659e-06 -1.17725e-05 0.0136837)
(-1.18659e-06 -1.17725e-05 0.0136837)
(-3.23601e-06 -1.07072e-05 0.0136128)