/*--------------------------------*- C++ -*----------------------------------*\
| =========                 |                                                 |
| \\      /  F ield         | OpenFOAM: The Open Source CFD Toolbox           |
|  \\    /   O peration     | Version:  2412                                  |
|   \\  /    A nd           | Website:  www.openfoam.com                      |
|    \\/     M anipulation  |                                                 |
\*---------------------------------------------------------------------------*/
FoamFile
{
    version     2.0;
    format      ascii;
    arch        "LSB;label=32;scalar=64";
    class       surfaceScalarField;
    location    "0.6";
    object      phi;
}
// * * * * * * * * * * * * * * * * * * * * * * * * * * * * * * * * * * * * * //

dimensions      [0 3 -1 0 0 0 0];

oriented        oriented;

internalField   nonuniform List<scalar> 
43700
(
6.93419e-08
6.93419e-08
5.00571e-07
-8.4618e-08
-8.4618e-08
4.95877e-08
5.84949e-08
5.39697e-07
-6.90537e-08
3.28019e-08
5.35651e-08
5.69357e-07
-6.67058e-08
1.62605e-08
5.01268e-08
5.89275e-07
-6.31483e-08
-7.85908e-15
4.85198e-08
5.99286e-07
-6.16167e-08
-1.62605e-08
4.85198e-08
5.99286e-07
-6.16167e-08
-3.2802e-08
5.01268e-08
5.89275e-07
-6.31482e-08
-4.95877e-08
5.3565e-08
5.69357e-07
-6.67058e-08
-6.93419e-08
5.84949e-08
5.39697e-07
-6.90537e-08
6.93419e-08
5.00571e-07
-8.4618e-08
-8.4618e-08
5.84949e-08
4.95877e-08
5.39697e-07
-6.90537e-08
4.38494e-08
4.38494e-08
5.75134e-07
2.9216e-08
3.99216e-08
6.01967e-07
1.45663e-08
3.72651e-08
6.20008e-07
6.32645e-15
3.59765e-08
6.29082e-07
-1.45663e-08
3.59765e-08
6.29082e-07
-2.9216e-08
3.72651e-08
6.20008e-07
-4.38494e-08
3.99216e-08
6.01967e-07
-5.84949e-08
4.38494e-08
5.75134e-07
4.95877e-08
5.39697e-07
-6.90537e-08
5.35651e-08
3.28019e-08
5.69357e-07
-6.67058e-08
3.99216e-08
2.9216e-08
6.01967e-07
2.64866e-08
2.64866e-08
6.26743e-07
1.31933e-08
2.4673e-08
6.43448e-07
6.67081e-15
2.37862e-08
6.51861e-07
-1.31933e-08
2.37862e-08
6.51861e-07
-2.64866e-08
2.4673e-08
6.43448e-07
-3.99215e-08
2.64866e-08
6.26743e-07
-5.3565e-08
2.9216e-08
6.01967e-07
3.2802e-08
5.69357e-07
-6.67058e-08
5.01268e-08
1.62605e-08
5.89275e-07
-6.31483e-08
3.72651e-08
1.45663e-08
6.20008e-07
2.4673e-08
1.31933e-08
6.43448e-07
1.228e-08
1.228e-08
6.59289e-07
3.97676e-15
1.18317e-08
6.67277e-07
-1.228e-08
1.18317e-08
6.67277e-07
-2.4673e-08
1.228e-08
6.59289e-07
-3.72651e-08
1.31933e-08
6.43448e-07
-5.01268e-08
1.45663e-08
6.20008e-07
1.62605e-08
5.89275e-07
-6.31482e-08
4.85198e-08
-2.5447e-16
5.99286e-07
-6.16167e-08
3.59765e-08
5.15931e-15
6.29082e-07
2.37862e-08
4.12713e-15
6.51861e-07
1.18317e-08
4.74737e-15
6.67277e-07
3.04152e-15
4.24703e-15
6.75056e-07
-1.18317e-08
5.72791e-15
6.75056e-07
-2.37862e-08
6.43342e-15
6.67277e-07
-3.59765e-08
2.87318e-15
6.51861e-07
-4.85198e-08
-4.46382e-16
6.29082e-07
-6.40442e-15
5.99286e-07
-6.16167e-08
4.85198e-08
-1.62605e-08
5.99286e-07
-6.16167e-08
3.59765e-08
-1.45663e-08
6.29082e-07
2.37862e-08
-1.31933e-08
6.51861e-07
1.18317e-08
-1.228e-08
6.67277e-07
5.56537e-15
-1.18317e-08
6.75056e-07
-1.18317e-08
-1.18317e-08
6.75056e-07
-2.37862e-08
-1.228e-08
6.67277e-07
-3.59765e-08
-1.31933e-08
6.51861e-07
-4.85198e-08
-1.45663e-08
6.29082e-07
-1.62605e-08
5.99286e-07
-6.16167e-08
5.01268e-08
-3.28019e-08
5.89275e-07
-6.31483e-08
3.72651e-08
-2.9216e-08
6.20008e-07
2.4673e-08
-2.64866e-08
6.43448e-07
1.228e-08
-2.4673e-08
6.59289e-07
5.01855e-15
-2.37862e-08
6.67277e-07
-1.228e-08
-2.37862e-08
6.67277e-07
-2.4673e-08
-2.4673e-08
6.59289e-07
-3.72651e-08
-2.64866e-08
6.43448e-07
-5.01268e-08
-2.9216e-08
6.20008e-07
-3.2802e-08
5.89275e-07
-6.31482e-08
5.35651e-08
-4.95877e-08
5.69357e-07
-6.67058e-08
3.99216e-08
-4.38494e-08
6.01967e-07
2.64867e-08
-3.99216e-08
6.26743e-07
1.31933e-08
-3.72651e-08
6.43448e-07
-4.85622e-16
-3.59765e-08
6.51861e-07
-1.31933e-08
-3.59765e-08
6.51861e-07
-2.64866e-08
-3.72651e-08
6.43448e-07
-3.99216e-08
-3.99216e-08
6.26743e-07
-5.3565e-08
-4.38494e-08
6.01967e-07
-4.95877e-08
5.69357e-07
-6.67058e-08
5.84949e-08
-6.93419e-08
5.39697e-07
-6.90536e-08
4.38494e-08
-5.84949e-08
5.75134e-07
2.9216e-08
-5.35651e-08
6.01967e-07
1.45663e-08
-5.01268e-08
6.20008e-07
1.4717e-16
-4.85198e-08
6.29082e-07
-1.45663e-08
-4.85198e-08
6.29082e-07
-2.9216e-08
-5.01268e-08
6.20008e-07
-4.38494e-08
-5.3565e-08
6.01967e-07
-5.84949e-08
-5.84949e-08
5.75134e-07
-6.93419e-08
5.39697e-07
-6.90537e-08
6.93418e-08
5.00571e-07
-8.46179e-08
-8.4618e-08
4.95877e-08
5.39697e-07
-6.90537e-08
3.28019e-08
5.69357e-07
-6.67058e-08
1.62605e-08
5.89275e-07
-6.31483e-08
-1.65661e-15
5.99286e-07
-6.16167e-08
-1.62605e-08
5.99286e-07
-6.16167e-08
-3.28019e-08
5.89275e-07
-6.31482e-08
-4.95877e-08
5.69357e-07
-6.67058e-08
-6.93419e-08
5.39697e-07
-6.90537e-08
5.00571e-07
-8.4618e-08
-8.4618e-08
2.56216e-08
2.56216e-08
5.05376e-07
-2.80241e-08
-2.80241e-08
2.02357e-08
2.48096e-08
5.46385e-07
-2.61118e-08
1.42939e-08
2.49139e-08
5.77579e-07
-2.71946e-08
7.3483e-09
2.48183e-08
5.98554e-07
-2.71512e-08
2.60482e-15
2.47462e-08
6.091e-07
-2.72119e-08
-7.3483e-09
2.47462e-08
6.091e-07
-2.72119e-08
-1.42939e-08
2.48183e-08
5.98554e-07
-2.71512e-08
-2.02357e-08
2.4914e-08
5.77579e-07
-2.71946e-08
-2.56216e-08
2.48096e-08
5.46385e-07
-2.61118e-08
2.56216e-08
5.05376e-07
-2.80241e-08
-2.80241e-08
2.48096e-08
2.02357e-08
5.46385e-07
-2.61118e-08
2.0443e-08
2.0443e-08
5.83867e-07
1.4522e-08
2.049e-08
6.12312e-07
7.52605e-09
2.0384e-08
6.31438e-07
3.76238e-16
2.03029e-08
6.41051e-07
-7.52605e-09
2.03029e-08
6.41051e-07
-1.4522e-08
2.0384e-08
6.31438e-07
-2.0443e-08
2.049e-08
6.12312e-07
-2.48096e-08
2.0443e-08
5.83867e-07
2.02357e-08
5.46385e-07
-2.61118e-08
2.49139e-08
1.42939e-08
5.77579e-07
-2.71946e-08
2.049e-08
1.4522e-08
6.12312e-07
1.4522e-08
1.4522e-08
6.38679e-07
7.51649e-09
1.44243e-08
6.56413e-07
4.09299e-15
1.43521e-08
6.65329e-07
-7.51648e-09
1.43521e-08
6.65329e-07
-1.4522e-08
1.44243e-08
6.56413e-07
-2.049e-08
1.4522e-08
6.38679e-07
-2.49139e-08
1.4522e-08
6.12312e-07
1.42939e-08
5.77579e-07
-2.71946e-08
2.48182e-08
7.3483e-09
5.98554e-07
-2.71512e-08
2.0384e-08
7.52604e-09
6.31438e-07
1.44243e-08
7.51649e-09
6.56413e-07
7.4588e-09
7.4588e-09
6.7322e-07
8.81547e-16
7.41683e-09
6.81671e-07
-7.4588e-09
7.41683e-09
6.81671e-07
-1.44243e-08
7.45881e-09
6.7322e-07
-2.0384e-08
7.51649e-09
6.56413e-07
-2.48183e-08
7.52604e-09
6.31438e-07
7.3483e-09
5.98554e-07
-2.71512e-08
2.47462e-08
4.55541e-15
6.091e-07
-2.72119e-08
2.03029e-08
-7.41749e-16
6.41051e-07
1.43521e-08
8.35488e-16
6.65329e-07
7.41683e-09
-6.47484e-16
6.81671e-07
-3.64888e-16
-5.34894e-17
6.8989e-07
-7.41683e-09
1.23767e-15
6.8989e-07
-1.4352e-08
2.03448e-15
6.81671e-07
-2.03029e-08
2.62894e-15
6.65329e-07
-2.47462e-08
-4.35389e-15
6.41051e-07
-3.57483e-15
6.091e-07
-2.72119e-08
2.47462e-08
-7.34829e-09
6.091e-07
-2.72119e-08
2.03029e-08
-7.52604e-09
6.41051e-07
1.43521e-08
-7.51648e-09
6.65329e-07
7.41683e-09
-7.4588e-09
6.81671e-07
1.57897e-15
-7.41683e-09
6.8989e-07
-7.41683e-09
-7.41683e-09
6.8989e-07
-1.43521e-08
-7.4588e-09
6.81671e-07
-2.03029e-08
-7.51648e-09
6.65329e-07
-2.47462e-08
-7.52605e-09
6.41051e-07
-7.3483e-09
6.091e-07
-2.72119e-08
2.48183e-08
-1.42939e-08
5.98554e-07
-2.71512e-08
2.0384e-08
-1.4522e-08
6.31438e-07
1.44243e-08
-1.4522e-08
6.56413e-07
7.45881e-09
-1.44243e-08
6.7322e-07
2.75565e-15
-1.4352e-08
6.81671e-07
-7.4588e-09
-1.43521e-08
6.81671e-07
-1.44243e-08
-1.44243e-08
6.7322e-07
-2.0384e-08
-1.4522e-08
6.56413e-07
-2.48183e-08
-1.4522e-08
6.31438e-07
-1.42939e-08
5.98554e-07
-2.71512e-08
2.49139e-08
-2.02357e-08
5.77579e-07
-2.71946e-08
2.049e-08
-2.0443e-08
6.12312e-07
1.4522e-08
-2.049e-08
6.38679e-07
7.51648e-09
-2.0384e-08
6.56413e-07
-1.6839e-15
-2.03029e-08
6.65329e-07
-7.51649e-09
-2.03029e-08
6.65329e-07
-1.4522e-08
-2.0384e-08
6.56413e-07
-2.049e-08
-2.049e-08
6.38679e-07
-2.49139e-08
-2.0443e-08
6.12312e-07
-2.02357e-08
5.77579e-07
-2.71946e-08
2.48096e-08
-2.56216e-08
5.46385e-07
-2.61118e-08
2.0443e-08
-2.48096e-08
5.83867e-07
1.4522e-08
-2.49139e-08
6.12312e-07
7.52604e-09
-2.48183e-08
6.31438e-07
-4.82966e-15
-2.47462e-08
6.41051e-07
-7.52605e-09
-2.47462e-08
6.41051e-07
-1.4522e-08
-2.48183e-08
6.31438e-07
-2.0443e-08
-2.49139e-08
6.12312e-07
-2.48096e-08
-2.48096e-08
5.83867e-07
-2.56216e-08
5.46385e-07
-2.61119e-08
2.56216e-08
5.05376e-07
-2.80241e-08
-2.80241e-08
2.02357e-08
5.46385e-07
-2.61118e-08
1.42939e-08
5.77579e-07
-2.71946e-08
7.3483e-09
5.98554e-07
-2.71512e-08
-3.83393e-16
6.091e-07
-2.72119e-08
-7.3483e-09
6.091e-07
-2.72119e-08
-1.42939e-08
5.98554e-07
-2.71512e-08
-2.02357e-08
5.77579e-07
-2.71946e-08
-2.56216e-08
5.46385e-07
-2.61119e-08
5.05376e-07
-2.80241e-08
-2.80241e-08
9.54477e-09
9.54477e-09
5.06223e-07
-9.96866e-09
-9.96866e-09
7.80719e-09
9.66065e-09
5.4809e-07
-9.62854e-09
5.62696e-09
1.00173e-08
5.79976e-07
-1.02337e-08
2.93053e-09
1.02008e-08
6.01459e-07
-1.041e-08
5.83866e-15
1.02847e-08
6.12271e-07
-1.05254e-08
-2.93051e-09
1.02847e-08
6.12271e-07
-1.05254e-08
-5.62694e-09
1.02008e-08
6.01459e-07
-1.041e-08
-7.80718e-09
1.00174e-08
5.79976e-07
-1.02338e-08
-9.54477e-09
9.66065e-09
5.4809e-07
-9.62854e-09
9.54475e-09
5.06223e-07
-9.96865e-09
-9.96865e-09
9.66066e-09
7.80719e-09
5.4809e-07
-9.62855e-09
8.28531e-09
8.28529e-09
5.86618e-07
6.04774e-09
8.62418e-09
6.15943e-07
3.18522e-09
8.80299e-09
6.35698e-07
8.6443e-16
8.88323e-09
6.45638e-07
-3.18522e-09
8.88323e-09
6.45638e-07
-6.04773e-09
8.80298e-09
6.35698e-07
-8.28528e-09
8.62418e-09
6.15943e-07
-9.66063e-09
8.28529e-09
5.86618e-07
7.80718e-09
5.4809e-07
-9.62853e-09
1.00173e-08
5.62697e-09
5.79976e-07
-1.02338e-08
8.62419e-09
6.04772e-09
6.15943e-07
6.30529e-09
6.30529e-09
6.43317e-07
3.32318e-09
6.44188e-09
6.61757e-07
3.25014e-15
6.50162e-09
6.71034e-07
-3.32317e-09
6.50161e-09
6.71034e-07
-6.30528e-09
6.44188e-09
6.61757e-07
-8.62418e-09
6.30528e-09
6.43317e-07
-1.00173e-08
6.04773e-09
6.15943e-07
5.62694e-09
5.79976e-07
-1.02337e-08
1.02008e-08
2.93053e-09
6.01459e-07
-1.041e-08
8.80298e-09
3.18521e-09
6.35698e-07
6.44188e-09
3.32318e-09
6.61757e-07
3.39681e-09
3.39681e-09
6.7931e-07
1.70282e-15
3.42856e-09
6.88141e-07
-3.3968e-09
3.42856e-09
6.88141e-07
-6.44188e-09
3.39681e-09
6.7931e-07
-8.80298e-09
3.32318e-09
6.61757e-07
-1.02008e-08
3.18521e-09
6.35698e-07
2.93052e-09
6.01459e-07
-1.041e-08
1.02847e-08
8.94582e-15
6.12271e-07
-1.05254e-08
8.88323e-09
-4.26503e-15
6.45638e-07
6.50161e-09
2.2498e-15
6.71034e-07
3.42856e-09
2.69146e-15
6.88141e-07
1.8428e-15
2.71072e-15
6.96747e-07
-3.42855e-09
2.92746e-15
6.96747e-07
-6.50161e-09
2.4465e-15
6.88141e-07
-8.88323e-09
2.7212e-15
6.71034e-07
-1.02847e-08
-2.37247e-15
6.45638e-07
5.74262e-15
6.12271e-07
-1.05254e-08
1.02847e-08
-2.9305e-09
6.12271e-07
-1.05254e-08
8.88323e-09
-3.18522e-09
6.45638e-07
6.50161e-09
-3.32317e-09
6.71034e-07
3.42856e-09
-3.3968e-09
6.88141e-07
1.54164e-15
-3.42855e-09
6.96747e-07
-3.42856e-09
-3.42855e-09
6.96747e-07
-6.50161e-09
-3.3968e-09
6.88141e-07
-8.88323e-09
-3.32318e-09
6.71034e-07
-1.02847e-08
-3.18522e-09
6.45638e-07
-2.9305e-09
6.12271e-07
-1.05254e-08
1.02008e-08
-5.62693e-09
6.01459e-07
-1.041e-08
8.80298e-09
-6.04774e-09
6.35698e-07
6.44188e-09
-6.30528e-09
6.61757e-07
3.39681e-09
-6.44187e-09
6.7931e-07
2.17489e-15
-6.50161e-09
6.88141e-07
-3.3968e-09
-6.50161e-09
6.88141e-07
-6.44188e-09
-6.44188e-09
6.7931e-07
-8.80297e-09
-6.30528e-09
6.61757e-07
-1.02008e-08
-6.04773e-09
6.35698e-07
-5.62693e-09
6.01459e-07
-1.041e-08
1.00174e-08
-7.80718e-09
5.79976e-07
-1.02337e-08
8.62418e-09
-8.28528e-09
6.15943e-07
6.30528e-09
-8.62418e-09
6.43317e-07
3.32318e-09
-8.80297e-09
6.61757e-07
2.17368e-15
-8.88323e-09
6.71034e-07
-3.32317e-09
-8.88323e-09
6.71034e-07
-6.30527e-09
-8.80298e-09
6.61757e-07
-8.62417e-09
-8.62418e-09
6.43317e-07
-1.00173e-08
-8.28527e-09
6.15943e-07
-7.80719e-09
5.79976e-07
-1.02337e-08
9.66065e-09
-9.54477e-09
5.4809e-07
-9.62853e-09
8.28528e-09
-9.66063e-09
5.86618e-07
6.04772e-09
-1.00173e-08
6.15943e-07
3.18521e-09
-1.02008e-08
6.35698e-07
-5.08052e-15
-1.02847e-08
6.45638e-07
-3.18522e-09
-1.02847e-08
6.45638e-07
-6.04774e-09
-1.02008e-08
6.35698e-07
-8.28529e-09
-1.00173e-08
6.15943e-07
-9.66065e-09
-9.66063e-09
5.86618e-07
-9.54477e-09
5.4809e-07
-9.62854e-09
9.54476e-09
5.06223e-07
-9.96864e-09
-9.96866e-09
7.80718e-09
5.4809e-07
-9.62853e-09
5.62694e-09
5.79976e-07
-1.02337e-08
2.93052e-09
6.01459e-07
-1.041e-08
3.05781e-15
6.12271e-07
-1.05254e-08
-2.93051e-09
6.12271e-07
-1.05254e-08
-5.62695e-09
6.01459e-07
-1.041e-08
-7.8072e-09
5.79976e-07
-1.02337e-08
-9.54477e-09
5.4809e-07
-9.62853e-09
5.06223e-07
-9.96867e-09
-9.96866e-09
3.48279e-09
3.48278e-09
5.06279e-07
-3.51069e-09
-3.5107e-09
2.93309e-09
3.65986e-09
5.48495e-07
-3.51499e-09
2.14923e-09
3.88919e-09
5.8068e-07
-3.80954e-09
1.13071e-09
4.02221e-09
6.02387e-07
-3.93109e-09
3.26679e-15
4.08626e-09
6.13316e-07
-4.00031e-09
-1.13069e-09
4.08626e-09
6.13316e-07
-4.00031e-09
-2.14921e-09
4.0222e-09
6.02387e-07
-3.93109e-09
-2.93306e-09
3.88919e-09
5.8068e-07
-3.80954e-09
-3.48278e-09
3.65988e-09
5.48495e-07
-3.515e-09
3.48279e-09
5.06279e-07
-3.5107e-09
-3.5107e-09
3.65987e-09
2.93308e-09
5.48495e-07
-3.515e-09
3.22752e-09
3.22752e-09
5.87483e-07
2.40063e-09
3.44874e-09
6.1721e-07
1.27823e-09
3.58108e-09
6.37262e-07
9.52755e-16
3.64468e-09
6.47358e-07
-1.27823e-09
3.64468e-09
6.47358e-07
-2.40063e-09
3.58108e-09
6.37262e-07
-3.22752e-09
3.44873e-09
6.1721e-07
-3.65984e-09
3.22752e-09
5.87483e-07
2.93309e-09
5.48495e-07
-3.51499e-09
3.88919e-09
2.14922e-09
5.8068e-07
-3.80955e-09
3.44874e-09
2.40063e-09
6.1721e-07
2.57271e-09
2.57271e-09
6.45069e-07
1.37198e-09
2.67713e-09
6.63861e-07
4.22545e-15
2.72689e-09
6.73323e-07
-1.37198e-09
2.72689e-09
6.73323e-07
-2.57271e-09
2.67713e-09
6.63861e-07
-3.44875e-09
2.57271e-09
6.45069e-07
-3.88919e-09
2.40063e-09
6.1721e-07
2.14923e-09
5.8068e-07
-3.80954e-09
4.02221e-09
1.1307e-09
6.02387e-07
-3.93109e-09
3.58108e-09
1.27823e-09
6.37262e-07
2.67713e-09
1.37198e-09
6.63861e-07
1.42947e-09
1.42947e-09
6.81805e-07
3.9708e-15
1.45674e-09
6.9084e-07
-1.42946e-09
1.45674e-09
6.9084e-07
-2.67712e-09
1.42947e-09
6.81805e-07
-3.58108e-09
1.37198e-09
6.63861e-07
-4.0222e-09
1.27823e-09
6.37262e-07
1.13071e-09
6.02387e-07
-3.93109e-09
4.08626e-09
1.70401e-15
6.13316e-07
-4.00031e-09
3.64468e-09
-1.96567e-15
6.47358e-07
2.72689e-09
3.3874e-15
6.73323e-07
1.45674e-09
3.93787e-15
6.9084e-07
3.93263e-15
4.78926e-15
6.9966e-07
-1.45673e-09
3.58659e-15
6.9966e-07
-2.72688e-09
2.51058e-15
6.9084e-07
-3.64468e-09
2.98397e-15
6.73323e-07
-4.08626e-09
-1.03257e-15
6.47358e-07
6.75742e-15
6.13316e-07
-4.00031e-09
4.08626e-09
-1.1307e-09
6.13316e-07
-4.00031e-09
3.64468e-09
-1.27824e-09
6.47358e-07
2.72689e-09
-1.37198e-09
6.73323e-07
1.45674e-09
-1.42946e-09
6.9084e-07
2.82969e-15
-1.45673e-09
6.9966e-07
-1.45673e-09
-1.45673e-09
6.9966e-07
-2.72688e-09
-1.42946e-09
6.9084e-07
-3.64468e-09
-1.37197e-09
6.73323e-07
-4.08626e-09
-1.27823e-09
6.47358e-07
-1.13069e-09
6.13316e-07
-4.00031e-09
4.0222e-09
-2.14921e-09
6.02387e-07
-3.93109e-09
3.58107e-09
-2.40064e-09
6.37262e-07
2.67713e-09
-2.57271e-09
6.63861e-07
1.42946e-09
-2.67713e-09
6.81805e-07
1.9698e-15
-2.72688e-09
6.9084e-07
-1.42946e-09
-2.72688e-09
6.9084e-07
-2.67713e-09
-2.67713e-09
6.81805e-07
-3.58107e-09
-2.5727e-09
6.63861e-07
-4.0222e-09
-2.40063e-09
6.37262e-07
-2.14922e-09
6.02387e-07
-3.93109e-09
3.88919e-09
-2.93307e-09
5.8068e-07
-3.80954e-09
3.44874e-09
-3.22752e-09
6.1721e-07
2.57271e-09
-3.44875e-09
6.45069e-07
1.37198e-09
-3.58108e-09
6.63861e-07
2.20917e-15
-3.64468e-09
6.73323e-07
-1.37197e-09
-3.64468e-09
6.73323e-07
-2.5727e-09
-3.58108e-09
6.63861e-07
-3.44874e-09
-3.44873e-09
6.45069e-07
-3.8892e-09
-3.22751e-09
6.1721e-07
-2.9331e-09
5.8068e-07
-3.80953e-09
3.65988e-09
-3.48278e-09
5.48495e-07
-3.515e-09
3.22753e-09
-3.65985e-09
5.87483e-07
2.40064e-09
-3.88919e-09
6.1721e-07
1.27823e-09
-4.0222e-09
6.37262e-07
-1.91816e-15
-4.08626e-09
6.47358e-07
-1.27824e-09
-4.08626e-09
6.47358e-07
-2.40064e-09
-4.0222e-09
6.37262e-07
-3.22752e-09
-3.88919e-09
6.1721e-07
-3.65987e-09
-3.65986e-09
5.87483e-07
-3.4828e-09
5.48495e-07
-3.515e-09
3.48278e-09
5.06279e-07
-3.51069e-09
-3.5107e-09
2.93308e-09
5.48495e-07
-3.51499e-09
2.14922e-09
5.8068e-07
-3.80955e-09
1.1307e-09
6.02387e-07
-3.93109e-09
6.77916e-15
6.13316e-07
-4.00031e-09
-1.13069e-09
6.13316e-07
-4.00031e-09
-2.14921e-09
6.02387e-07
-3.93109e-09
-2.93308e-09
5.8068e-07
-3.80953e-09
-3.48278e-09
5.48495e-07
-3.51499e-09
5.06279e-07
-3.51071e-09
-3.51071e-09
1.23233e-09
1.23233e-09
5.06242e-07
-1.21388e-09
-1.21388e-09
1.06013e-09
1.33567e-09
5.48581e-07
-1.24937e-09
7.86985e-10
1.45003e-09
5.80879e-07
-1.37595e-09
4.17423e-10
1.52017e-09
6.02673e-07
-1.43689e-09
4.78461e-16
1.55483e-09
6.13649e-07
-1.47044e-09
-4.17421e-10
1.55483e-09
6.13649e-07
-1.47044e-09
-7.86975e-10
1.52017e-09
6.02673e-07
-1.43689e-09
-1.06011e-09
1.45002e-09
5.80879e-07
-1.37594e-09
-1.23233e-09
1.33568e-09
5.48581e-07
-1.24938e-09
1.23232e-09
5.06242e-07
-1.21387e-09
-1.21388e-09
1.33568e-09
1.06012e-09
5.48581e-07
-1.24938e-09
1.20359e-09
1.20358e-09
5.87747e-07
9.08891e-10
1.31606e-09
6.17639e-07
4.88263e-10
1.38724e-09
6.37816e-07
-4.66188e-16
1.42242e-09
6.47979e-07
-4.88266e-10
1.42242e-09
6.47979e-07
-9.08897e-10
1.38723e-09
6.37816e-07
-1.20359e-09
1.31604e-09
6.17639e-07
-1.33566e-09
1.20358e-09
5.87747e-07
1.0601e-09
5.48581e-07
-1.24937e-09
1.45003e-09
7.86978e-10
5.80879e-07
-1.37595e-09
1.31606e-09
9.08886e-10
6.17639e-07
9.97689e-10
9.9769e-10
6.45706e-07
5.37108e-10
1.05477e-09
6.64654e-07
5.13288e-15
1.08285e-09
6.742e-07
-5.37097e-10
1.08285e-09
6.742e-07
-9.97678e-10
1.05476e-09
6.64654e-07
-1.31605e-09
9.97681e-10
6.45706e-07
-1.45003e-09
9.08885e-10
6.17639e-07
7.86969e-10
5.80879e-07
-1.37595e-09
1.52017e-09
4.17423e-10
6.02673e-07
-1.43689e-09
1.38723e-09
4.88259e-10
6.37816e-07
1.05477e-09
5.37109e-10
6.64654e-07
5.68823e-10
5.68825e-10
6.82777e-07
5.33534e-15
5.84394e-10
6.91907e-07
-5.68811e-10
5.84393e-10
6.91907e-07
-1.05475e-09
5.6882e-10
6.82777e-07
-1.38723e-09
5.37103e-10
6.64654e-07
-1.52016e-09
4.88257e-10
6.37816e-07
4.17422e-10
6.02673e-07
-1.43689e-09
1.55483e-09
9.75334e-16
6.13649e-07
-1.47044e-09
1.42241e-09
2.33173e-16
6.47979e-07
1.08285e-09
6.19688e-15
6.742e-07
5.84392e-10
6.34165e-15
6.91907e-07
4.22798e-15
5.87036e-15
7.00829e-07
-5.84383e-10
3.76504e-15
7.00829e-07
-1.08284e-09
2.04155e-15
6.91907e-07
-1.42241e-09
2.18306e-15
6.742e-07
-1.55483e-09
-2.06142e-15
6.47979e-07
5.91175e-15
6.13649e-07
-1.47044e-09
1.55483e-09
-4.1742e-10
6.13649e-07
-1.47044e-09
1.42241e-09
-4.8826e-10
6.47979e-07
1.08285e-09
-5.37095e-10
6.742e-07
5.8439e-10
-5.68812e-10
6.91907e-07
2.52499e-15
-5.84382e-10
7.00829e-07
-5.84385e-10
-5.84385e-10
7.00829e-07
-1.08284e-09
-5.68817e-10
6.91907e-07
-1.42241e-09
-5.37098e-10
6.742e-07
-1.55483e-09
-4.88261e-10
6.47979e-07
-4.1741e-10
6.13649e-07
-1.47044e-09
1.52016e-09
-7.86966e-10
6.02673e-07
-1.43689e-09
1.38723e-09
-9.08887e-10
6.37816e-07
1.05476e-09
-9.97677e-10
6.64654e-07
5.68817e-10
-1.05476e-09
6.82777e-07
7.63678e-16
-1.08284e-09
6.91907e-07
-5.68816e-10
-1.08284e-09
6.91907e-07
-1.05476e-09
-1.05476e-09
6.82777e-07
-1.38723e-09
-9.97678e-10
6.64654e-07
-1.52016e-09
-9.08889e-10
6.37816e-07
-7.86962e-10
6.02673e-07
-1.43689e-09
1.45002e-09
-1.0601e-09
5.80879e-07
-1.37594e-09
1.31604e-09
-1.20358e-09
6.17639e-07
9.97678e-10
-1.31605e-09
6.45706e-07
5.37101e-10
-1.38723e-09
6.64654e-07
5.4642e-16
-1.42241e-09
6.742e-07
-5.37099e-10
-1.42241e-09
6.742e-07
-9.97678e-10
-1.38723e-09
6.64654e-07
-1.31604e-09
-1.31604e-09
6.45706e-07
-1.45003e-09
-1.20357e-09
6.17639e-07
-1.06011e-09
5.80879e-07
-1.37594e-09
1.33569e-09
-1.23233e-09
5.48581e-07
-1.24938e-09
1.20358e-09
-1.33565e-09
5.87747e-07
9.08887e-10
-1.45003e-09
6.17639e-07
4.88258e-10
-1.52016e-09
6.37816e-07
-2.62587e-15
-1.55483e-09
6.47979e-07
-4.88263e-10
-1.55483e-09
6.47979e-07
-9.08891e-10
-1.52017e-09
6.37816e-07
-1.20358e-09
-1.45003e-09
6.17639e-07
-1.33567e-09
-1.33565e-09
5.87747e-07
-1.23233e-09
5.48581e-07
-1.24936e-09
1.23231e-09
5.06242e-07
-1.21387e-09
-1.21387e-09
1.06011e-09
5.48581e-07
-1.24936e-09
7.8697e-10
5.80879e-07
-1.37595e-09
4.17418e-10
6.02673e-07
-1.43689e-09
5.72147e-15
6.13649e-07
-1.47044e-09
-4.17409e-10
6.13649e-07
-1.47044e-09
-7.86963e-10
6.02673e-07
-1.43689e-09
-1.06011e-09
5.80879e-07
-1.37594e-09
-1.23232e-09
5.48581e-07
-1.24936e-09
5.06242e-07
-1.21388e-09
-1.21388e-09
4.39047e-10
4.39044e-10
5.06219e-07
-4.27248e-10
-4.27255e-10
3.82043e-10
4.84258e-10
5.486e-07
-4.46008e-10
2.85621e-10
5.32572e-10
5.80939e-07
-4.95541e-10
1.52192e-10
5.63246e-10
6.02764e-07
-5.21133e-10
-2.49166e-15
5.78639e-10
6.13758e-07
-5.35091e-10
-1.52196e-10
5.78635e-10
6.13758e-07
-5.35088e-10
-2.85618e-10
5.63234e-10
6.02764e-07
-5.21129e-10
-3.82041e-10
5.32571e-10
5.80939e-07
-4.95537e-10
-4.39047e-10
4.84267e-10
5.486e-07
-4.46015e-10
4.39038e-10
5.06219e-07
-4.27245e-10
-4.27251e-10
4.84273e-10
3.82033e-10
5.486e-07
-4.46015e-10
4.42135e-10
4.42126e-10
5.87831e-07
3.37037e-10
4.90754e-10
6.17786e-07
1.82088e-10
5.22607e-10
6.38011e-07
-1.70492e-15
5.38626e-10
6.48201e-07
-1.82093e-10
5.38623e-10
6.48201e-07
-3.37048e-10
5.22599e-10
6.38011e-07
-4.42147e-10
4.90749e-10
6.17786e-07
-4.84282e-10
4.42133e-10
5.87831e-07
3.82016e-10
5.486e-07
-4.46011e-10
5.32578e-10
2.8561e-10
5.80939e-07
-4.95545e-10
4.90754e-10
3.37033e-10
6.17786e-07
3.76074e-10
3.76076e-10
6.45935e-07
2.03776e-10
4.02063e-10
6.64947e-07
4.99509e-15
4.15099e-10
6.74527e-07
-2.03767e-10
4.15096e-10
6.74527e-07
-3.76066e-10
4.02056e-10
6.64947e-07
-4.90748e-10
3.7607e-10
6.45935e-07
-5.32571e-10
3.37034e-10
6.17786e-07
2.85609e-10
5.80939e-07
-4.95551e-10
5.63237e-10
1.52188e-10
6.02764e-07
-5.21132e-10
5.22596e-10
1.82086e-10
6.38011e-07
4.02054e-10
2.03777e-10
6.64947e-07
2.18357e-10
2.18361e-10
6.83144e-07
5.85932e-15
2.25669e-10
6.92315e-07
-2.18346e-10
2.25667e-10
6.92315e-07
-4.02044e-10
2.18356e-10
6.83144e-07
-5.22588e-10
2.03772e-10
6.64947e-07
-5.63226e-10
1.82083e-10
6.38011e-07
1.52194e-10
6.02764e-07
-5.21129e-10
5.78636e-10
-3.00358e-15
6.13758e-07
-5.35092e-10
5.38619e-10
4.47661e-17
6.48201e-07
4.15093e-10
6.10755e-15
6.74527e-07
2.25666e-10
6.93167e-15
6.92315e-07
5.22795e-15
6.60551e-15
7.0128e-07
-2.25657e-10
5.01728e-15
7.0128e-07
-4.15086e-10
3.5085e-15
6.92315e-07
-5.38615e-10
3.29645e-15
6.74527e-07
-5.78633e-10
-1.73408e-15
6.48201e-07
5.48545e-15
6.13758e-07
-5.35092e-10
5.78636e-10
-1.52195e-10
6.13758e-07
-5.35091e-10
5.38618e-10
-1.82085e-10
6.48201e-07
4.15091e-10
-2.03764e-10
6.74527e-07
2.25665e-10
-2.18347e-10
6.92315e-07
4.16453e-15
-2.25656e-10
7.0128e-07
-2.25657e-10
-2.25657e-10
7.0128e-07
-4.15086e-10
-2.18349e-10
6.92315e-07
-5.38615e-10
-2.03766e-10
6.74527e-07
-5.78631e-10
-1.82089e-10
6.48201e-07
-1.52181e-10
6.13758e-07
-5.35093e-10
5.63224e-10
-2.85611e-10
6.02764e-07
-5.21125e-10
5.22587e-10
-3.37035e-10
6.38011e-07
4.02047e-10
-3.76065e-10
6.64947e-07
2.18352e-10
-4.02051e-10
6.83144e-07
2.039e-15
-4.15088e-10
6.92315e-07
-2.18348e-10
-4.15088e-10
6.92315e-07
-4.02046e-10
-4.0205e-10
6.83144e-07
-5.22587e-10
-3.76065e-10
6.64947e-07
-5.63222e-10
-3.37042e-10
6.38011e-07
-2.85592e-10
6.02764e-07
-5.21128e-10
5.32556e-10
-3.82022e-10
5.80939e-07
-4.95537e-10
4.90738e-10
-4.42137e-10
6.17786e-07
3.76063e-10
-4.9075e-10
6.45935e-07
2.03769e-10
-5.22597e-10
6.64947e-07
8.82423e-16
-5.38618e-10
6.74527e-07
-2.03768e-10
-5.38618e-10
6.74527e-07
-3.76066e-10
-5.22593e-10
6.64947e-07
-4.90745e-10
-4.90745e-10
6.45935e-07
-5.32571e-10
-4.42134e-10
6.17786e-07
-3.82015e-10
5.80939e-07
-4.95539e-10
4.84288e-10
-4.39047e-10
5.486e-07
-4.46016e-10
4.42138e-10
-4.84258e-10
5.87831e-07
3.37037e-10
-5.32569e-10
6.17786e-07
1.82085e-10
-5.63234e-10
6.38011e-07
-3.19325e-15
-5.78634e-10
6.48201e-07
-1.82093e-10
-5.78633e-10
6.48201e-07
-3.37047e-10
-5.63228e-10
6.38011e-07
-4.42142e-10
-5.32567e-10
6.17786e-07
-4.84285e-10
-4.84264e-10
5.87831e-07
-4.39045e-10
5.486e-07
-4.46008e-10
4.39045e-10
5.06219e-07
-4.27246e-10
-4.27255e-10
3.82032e-10
5.486e-07
-4.45999e-10
2.85613e-10
5.80939e-07
-4.95542e-10
1.52192e-10
6.02764e-07
-5.21131e-10
3.21148e-15
6.13758e-07
-5.35094e-10
-1.52187e-10
6.13758e-07
-5.35092e-10
-2.85607e-10
6.02764e-07
-5.21127e-10
-3.82028e-10
5.80939e-07
-4.95538e-10
-4.39047e-10
5.486e-07
-4.46e-10
5.06219e-07
-4.27252e-10
-4.27252e-10
1.57783e-10
1.57793e-10
5.06208e-07
-1.52536e-10
-1.52536e-10
1.38175e-10
1.75817e-10
5.48604e-07
-1.60508e-10
1.03721e-10
1.94839e-10
5.80957e-07
-1.79243e-10
5.54136e-11
2.07151e-10
6.02795e-07
-1.89258e-10
-5.74334e-15
2.13392e-10
6.13794e-07
-1.94706e-10
-5.54253e-11
2.13389e-10
6.13794e-07
-1.94703e-10
-1.03734e-10
2.07145e-10
6.02795e-07
-1.89252e-10
-1.38193e-10
1.9483e-10
5.80957e-07
-1.79234e-10
-1.57796e-10
1.75797e-10
5.48604e-07
-1.60495e-10
1.57776e-10
5.06208e-07
-1.52532e-10
-1.52537e-10
1.75811e-10
1.3819e-10
5.48604e-07
-1.60506e-10
1.61758e-10
1.61755e-10
5.87859e-07
1.24003e-10
1.81201e-10
6.17837e-07
6.72243e-11
1.94198e-10
6.38081e-07
-1.354e-15
2.00809e-10
6.4828e-07
-6.72287e-11
2.00808e-10
6.4828e-07
-1.24009e-10
1.94195e-10
6.38081e-07
-1.6176e-10
1.81191e-10
6.17837e-07
-1.75824e-10
1.61745e-10
5.87859e-07
1.38165e-10
5.48604e-07
-1.60511e-10
1.94853e-10
1.0372e-10
5.80957e-07
-1.79243e-10
1.8121e-10
1.24004e-10
6.17837e-07
1.39802e-10
1.398e-10
6.46018e-07
7.60652e-11
1.50539e-10
6.65055e-07
5.5474e-15
1.55993e-10
6.74648e-07
-7.60533e-11
1.55991e-10
6.74648e-07
-1.39787e-10
1.50533e-10
6.65055e-07
-1.81191e-10
1.39791e-10
6.46018e-07
-1.94829e-10
1.23994e-10
6.17837e-07
1.03714e-10
5.80957e-07
-1.7924e-10
2.07155e-10
5.54098e-11
6.02795e-07
-1.89259e-10
1.94201e-10
6.72254e-11
6.38081e-07
1.50538e-10
7.60656e-11
6.65055e-07
8.21364e-11
8.21381e-11
6.83281e-07
6.36253e-15
8.52203e-11
6.92468e-07
-8.21236e-11
8.52178e-11
6.92468e-07
-1.50524e-10
8.21315e-11
6.83281e-07
-1.94187e-10
7.6058e-11
6.65055e-07
-2.0714e-10
6.72175e-11
6.38081e-07
5.54153e-11
6.02795e-07
-1.89255e-10
2.13391e-10
-5.974e-15
6.13794e-07
-1.94707e-10
2.00807e-10
6.00122e-16
6.4828e-07
1.5599e-10
6.58694e-15
6.74648e-07
8.52184e-11
7.6844e-15
6.92468e-07
5.53503e-15
6.80566e-15
7.01451e-07
-8.52076e-11
4.81682e-15
7.01451e-07
-1.55981e-10
2.45804e-15
6.92468e-07
-2.008e-10
1.3955e-15
6.74648e-07
-2.13386e-10
-4.16977e-15
6.4828e-07
4.32214e-15
6.13794e-07
-1.94708e-10
2.13388e-10
-5.54248e-11
6.13794e-07
-1.94703e-10
2.00805e-10
-6.72247e-11
6.4828e-07
1.55987e-10
-7.60523e-11
6.74648e-07
8.52157e-11
-8.21229e-11
6.92468e-07
3.4753e-15
-8.52071e-11
7.01451e-07
-8.52093e-11
-8.52085e-11
7.01451e-07
-1.55983e-10
-8.21268e-11
6.92468e-07
-2.00801e-10
-7.60563e-11
6.74648e-07
-2.13386e-10
-6.72277e-11
6.4828e-07
-5.54044e-11
6.13794e-07
-1.94709e-10
2.07144e-10
-1.03734e-10
6.02795e-07
-1.89251e-10
1.94192e-10
-1.24005e-10
6.38081e-07
1.50531e-10
-1.39787e-10
6.65055e-07
8.21304e-11
-1.50525e-10
6.83281e-07
1.50041e-15
-1.55981e-10
6.92468e-07
-8.21276e-11
-1.55982e-10
6.92468e-07
-1.50528e-10
-1.50528e-10
6.83281e-07
-1.94189e-10
-1.39792e-10
6.65055e-07
-2.07139e-10
-1.24008e-10
6.38081e-07
-1.03703e-10
6.02795e-07
-1.89255e-10
1.94834e-10
-1.3819e-10
5.80957e-07
-1.79237e-10
1.81195e-10
-1.61757e-10
6.17837e-07
1.39793e-10
-1.81191e-10
6.46018e-07
7.60594e-11
-1.94188e-10
6.65055e-07
1.91563e-15
-2.00799e-10
6.74648e-07
-7.60553e-11
-2.008e-10
6.74648e-07
-1.3979e-10
-1.9419e-10
6.65055e-07
-1.81192e-10
-1.81197e-10
6.46018e-07
-1.9484e-10
-1.61754e-10
6.17837e-07
-1.38167e-10
5.80957e-07
-1.79238e-10
1.75813e-10
-1.57791e-10
5.48604e-07
-1.6051e-10
1.61744e-10
-1.758e-10
5.87859e-07
1.23994e-10
-1.9483e-10
6.17837e-07
6.72188e-11
-2.07143e-10
6.38081e-07
-2.79224e-15
-2.13386e-10
6.4828e-07
-6.72255e-11
-2.13385e-10
6.4828e-07
-1.24005e-10
-2.07142e-10
6.38081e-07
-1.61748e-10
-1.94848e-10
6.17837e-07
-1.75809e-10
-1.75812e-10
5.87859e-07
-1.57779e-10
5.48604e-07
-1.60496e-10
1.57767e-10
5.06208e-07
-1.52523e-10
-1.52535e-10
1.38162e-10
5.48604e-07
-1.60497e-10
1.03711e-10
5.80958e-07
-1.79241e-10
5.54109e-11
6.02795e-07
-1.89259e-10
3.11077e-15
6.13794e-07
-1.9471e-10
-5.54039e-11
6.13794e-07
-1.9471e-10
-1.03703e-10
6.02795e-07
-1.89257e-10
-1.38168e-10
5.80957e-07
-1.79242e-10
-1.5778e-10
5.48604e-07
-1.60497e-10
5.06208e-07
-1.52531e-10
-1.52527e-10
5.69514e-11
5.69563e-11
5.06204e-07
-5.48606e-11
-5.48603e-11
5.00566e-11
6.38669e-11
5.48605e-07
-5.80108e-11
3.7664e-11
7.11211e-11
5.80964e-07
-6.4993e-11
2.01529e-11
7.58704e-11
6.02805e-07
-6.87947e-11
-4.229e-15
7.82896e-11
6.13807e-07
-7.08596e-11
-2.01613e-11
7.82865e-11
6.13807e-07
-7.08565e-11
-3.7675e-11
7.58685e-11
6.02805e-07
-6.87902e-11
-5.00749e-11
7.11274e-11
5.80964e-07
-6.49892e-11
-5.69655e-11
6.38616e-11
5.48605e-07
-5.80081e-11
5.69436e-11
5.06204e-07
-5.48566e-11
-5.48646e-11
6.38577e-11
5.00616e-11
5.48605e-07
-5.80035e-11
5.90276e-11
5.90293e-11
5.87869e-07
4.54078e-11
6.65193e-11
6.17856e-07
2.46693e-11
7.1586e-11
6.38106e-07
-6.71372e-16
7.41784e-11
6.48309e-07
-2.46716e-11
7.4176e-11
6.48309e-07
-4.54122e-11
7.15843e-11
6.38106e-07
-5.90294e-11
6.65192e-11
6.17856e-07
-6.38642e-11
5.9025e-11
5.87869e-07
5.00451e-11
5.48605e-07
-5.80068e-11
7.11206e-11
3.76633e-11
5.80964e-07
-6.49881e-11
6.65178e-11
4.54099e-11
6.17856e-07
5.15372e-11
5.15403e-11
6.46048e-07
2.81159e-11
5.57607e-11
6.65094e-07
3.35616e-15
5.79197e-11
6.74693e-07
-2.811e-11
5.79179e-11
6.74693e-07
-5.15323e-11
5.57583e-11
6.65094e-07
-6.65137e-11
5.15385e-11
6.46048e-07
-7.11185e-11
4.54059e-11
6.17856e-07
3.76583e-11
5.80964e-07
-6.49947e-11
7.58669e-11
2.01516e-11
6.02805e-07
-6.87919e-11
7.15837e-11
2.46701e-11
6.38106e-07
5.57595e-11
2.81182e-11
6.65094e-07
3.05161e-11
3.05169e-11
6.83332e-07
4.62566e-15
3.17442e-11
6.92525e-07
-3.05078e-11
3.17431e-11
6.92525e-07
-5.57522e-11
3.05146e-11
6.83332e-07
-7.15778e-11
2.81159e-11
6.65094e-07
-7.58631e-11
2.46664e-11
6.38106e-07
2.01535e-11
6.02805e-07
-6.87933e-11
7.82882e-11