/*--------------------------------*- C++ -*----------------------------------*\
| =========                 |                                                 |
| \\      /  F ield         | OpenFOAM: The Open Source CFD Toolbox           |
|  \\    /   O peration     | Version:  2412                                  |
|   \\  /    A nd           | Website:  www.openfoam.com                      |
|    \\/     M anipulation  |                                                 |
\*---------------------------------------------------------------------------*/
FoamFile
{
    version     2.0;
    format      ascii;
    arch        "LSB;label=32;scalar=64";
    class       volVectorField;
    location    "0.6";
    object      U;
}
// * * * * * * * * * * * * * * * * * * * * * * * * * * * * * * * * * * * * * //

dimensions      [0 1 -1 0 0 0 0];

internalField   nonuniform List<vector> 
15000
(
(0.000473752 0.000473752 0.0103296)
(0.00032596 0.000407868 0.0102932)
(0.000223127 0.000397772 0.0102682)
(0.000131082 0.000383076 0.0102521)
(4.30415e-05 0.000376668 0.0102443)
(-4.30416e-05 0.000376668 0.0102443)
(-0.000131082 0.000383076 0.0102521)
(-0.000223127 0.000397772 0.0102682)
(-0.00032596 0.000407868 0.0102932)
(-0.000473752 0.000473752 0.0103296)
(0.000407868 0.00032596 0.0102932)
(0.000301996 0.000301996 0.0102573)
(0.000210568 0.000289082 0.0102318)
(0.000124148 0.00028047 0.0102156)
(4.09282e-05 0.000276463 0.0102078)
(-4.09281e-05 0.000276463 0.0102078)
(-0.000124148 0.00028047 0.0102156)
(-0.000210568 0.000289082 0.0102318)
(-0.000301996 0.000301996 0.0102573)
(-0.000407868 0.00032596 0.0102932)
(0.000397772 0.000223127 0.0102682)
(0.000289082 0.000210568 0.0102318)
(0.000200474 0.000200474 0.0102066)
(0.000117632 0.000193298 0.0101909)
(3.87446e-05 0.000189784 0.0101834)
(-3.87445e-05 0.000189784 0.0101834)
(-0.000117632 0.000193298 0.0101909)
(-0.000200474 0.000200474 0.0102066)
(-0.000289082 0.000210568 0.0102318)
(-0.000397772 0.000223127 0.0102682)
(0.000383076 0.000131082 0.0102521)
(0.00028047 0.000124148 0.0102156)
(0.000193298 0.000117632 0.0101909)
(0.000113108 0.000113108 0.0101758)
(3.7224e-05 0.000110872 0.0101686)
(-3.7224e-05 0.000110872 0.0101686)
(-0.000113108 0.000113108 0.0101758)
(-0.000193297 0.000117632 0.0101909)
(-0.00028047 0.000124148 0.0102156)
(-0.000383076 0.000131082 0.0102521)
(0.000376668 4.30416e-05 0.0102443)
(0.000276463 4.09282e-05 0.0102078)
(0.000189784 3.87445e-05 0.0101834)
(0.000110872 3.7224e-05 0.0101686)
(3.64674e-05 3.64674e-05 0.0101616)
(-3.64674e-05 3.64674e-05 0.0101616)
(-0.000110872 3.72241e-05 0.0101686)
(-0.000189784 3.87445e-05 0.0101834)
(-0.000276463 4.09282e-05 0.0102078)
(-0.000376668 4.30415e-05 0.0102443)
(0.000376668 -4.30416e-05 0.0102443)
(0.000276463 -4.09281e-05 0.0102078)
(0.000189784 -3.87445e-05 0.0101834)
(0.000110872 -3.7224e-05 0.0101686)
(3.64674e-05 -3.64674e-05 0.0101616)
(-3.64674e-05 -3.64674e-05 0.0101616)
(-0.000110872 -3.7224e-05 0.0101686)
(-0.000189784 -3.87445e-05 0.0101834)
(-0.000276463 -4.09282e-05 0.0102078)
(-0.000376668 -4.30416e-05 0.0102443)
(0.000383076 -0.000131082 0.0102521)
(0.00028047 -0.000124148 0.0102156)
(0.000193298 -0.000117632 0.0101909)
(0.000113108 -0.000113108 0.0101758)
(3.72241e-05 -0.000110872 0.0101686)
(-3.7224e-05 -0.000110872 0.0101686)
(-0.000113108 -0.000113108 0.0101758)
(-0.000193298 -0.000117632 0.0101909)
(-0.00028047 -0.000124148 0.0102156)
(-0.000383076 -0.000131082 0.0102521)
(0.000397772 -0.000223127 0.0102682)
(0.000289082 -0.000210568 0.0102318)
(0.000200474 -0.000200474 0.0102066)
(0.000117632 -0.000193297 0.0101909)
(3.87445e-05 -0.000189784 0.0101834)
(-3.87445e-05 -0.000189784 0.0101834)
(-0.000117632 -0.000193298 0.0101909)
(-0.000200474 -0.000200474 0.0102066)
(-0.000289082 -0.000210568 0.0102318)
(-0.000397772 -0.000223127 0.0102682)
(0.000407868 -0.00032596 0.0102932)
(0.000301996 -0.000301996 0.0102573)
(0.000210568 -0.000289082 0.0102318)
(0.000124148 -0.00028047 0.0102156)
(4.09282e-05 -0.000276463 0.0102078)
(-4.09282e-05 -0.000276463 0.0102078)
(-0.000124148 -0.00028047 0.0102156)
(-0.000210568 -0.000289082 0.0102318)
(-0.000301996 -0.000301996 0.0102573)
(-0.000407868 -0.00032596 0.0102932)
(0.000473752 -0.000473752 0.0103296)
(0.00032596 -0.000407868 0.0102932)
(0.000223127 -0.000397772 0.0102682)
(0.000131082 -0.000383076 0.0102521)
(4.30416e-05 -0.000376668 0.0102443)
(-4.30416e-05 -0.000376668 0.0102443)
(-0.000131082 -0.000383076 0.0102521)
(-0.000223127 -0.000397772 0.0102682)
(-0.00032596 -0.000407868 0.0102932)
(-0.000473752 -0.000473752 0.0103296)
(0.000165486 0.000165486 0.0107647)
(0.000126431 0.000164173 0.0107107)
(9.36341e-05 0.000174373 0.0106723)
(5.78245e-05 0.000177763 0.0106471)
(1.94289e-05 0.0001798 0.0106348)
(-1.94288e-05 0.0001798 0.0106348)
(-5.78243e-05 0.000177763 0.0106471)
(-9.36341e-05 0.000174373 0.0106723)
(-0.000126432 0.000164173 0.0107107)
(-0.000165486 0.000165486 0.0107647)
(0.000164173 0.000126431 0.0107107)
(0.000134974 0.000134974 0.0106545)
(0.00010146 0.000142294 0.0106132)
(6.28089e-05 0.000146647 0.0105864)
(2.12305e-05 0.000148867 0.0105733)
(-2.12305e-05 0.000148867 0.0105733)
(-6.28088e-05 0.000146647 0.0105864)
(-0.00010146 0.000142294 0.0106132)
(-0.000134974 0.000134974 0.0106545)
(-0.000164173 0.000126432 0.0107107)
(0.000174373 9.3634e-05 0.0106723)
(0.000142294 0.00010146 0.0106132)
(0.000106608 0.000106608 0.0105708)
(6.5793e-05 0.000109578 0.0105436)
(2.22166e-05 0.00011097 0.0105303)
(-2.22165e-05 0.00011097 0.0105303)
(-6.5793e-05 0.000109578 0.0105436)
(-0.000106608 0.000106608 0.0105708)
(-0.000142294 0.00010146 0.0106132)
(-0.000174373 9.3634e-05 0.0106723)
(0.000177763 5.78244e-05 0.0106471)
(0.000146647 6.28088e-05 0.0105864)
(0.000109578 6.5793e-05 0.0105436)
(6.74824e-05 6.74824e-05 0.0105163)
(2.27675e-05 6.8258e-05 0.0105031)
(-2.27675e-05 6.8258e-05 0.0105031)
(-6.74824e-05 6.74824e-05 0.0105163)
(-0.000109578 6.5793e-05 0.0105436)
(-0.000146647 6.28089e-05 0.0105864)
(-0.000177763 5.78243e-05 0.0106471)
(0.0001798 1.94289e-05 0.0106348)
(0.000148867 2.12305e-05 0.0105733)
(0.00011097 2.22165e-05 0.0105303)
(6.8258e-05 2.27675e-05 0.0105031)
(2.3017e-05 2.3017e-05 0.01049)
(-2.3017e-05 2.3017e-05 0.01049)
(-6.8258e-05 2.27675e-05 0.0105031)
(-0.00011097 2.22165e-05 0.0105303)
(-0.000148867 2.12305e-05 0.0105733)
(-0.0001798 1.94288e-05 0.0106348)
(0.0001798 -1.94288e-05 0.0106348)
(0.000148867 -2.12305e-05 0.0105733)
(0.00011097 -2.22165e-05 0.0105303)
(6.8258e-05 -2.27675e-05 0.0105031)
(2.3017e-05 -2.3017e-05 0.01049)
(-2.3017e-05 -2.3017e-05 0.01049)
(-6.8258e-05 -2.27675e-05 0.0105031)
(-0.00011097 -2.22165e-05 0.0105303)
(-0.000148867 -2.12305e-05 0.0105733)
(-0.0001798 -1.94289e-05 0.0106348)
(0.000177763 -5.78244e-05 0.0106471)
(0.000146647 -6.28089e-05 0.0105864)
(0.000109578 -6.5793e-05 0.0105436)
(6.74823e-05 -6.74823e-05 0.0105163)
(2.27675e-05 -6.8258e-05 0.0105031)
(-2.27675e-05 -6.8258e-05 0.0105031)
(-6.74823e-05 -6.74824e-05 0.0105163)
(-0.000109578 -6.5793e-05 0.0105436)
(-0.000146647 -6.28089e-05 0.0105864)
(-0.000177763 -5.78244e-05 0.0106471)
(0.000174373 -9.36341e-05 0.0106723)
(0.000142294 -0.00010146 0.0106132)
(0.000106608 -0.000106608 0.0105708)
(6.5793e-05 -0.000109578 0.0105436)
(2.22165e-05 -0.00011097 0.0105303)
(-2.22165e-05 -0.00011097 0.0105303)
(-6.5793e-05 -0.000109578 0.0105436)
(-0.000106608 -0.000106608 0.0105708)
(-0.000142294 -0.00010146 0.0106132)
(-0.000174373 -9.36336e-05 0.0106723)
(0.000164173 -0.000126432 0.0107107)
(0.000134974 -0.000134974 0.0106545)
(0.00010146 -0.000142294 0.0106132)
(6.28089e-05 -0.000146647 0.0105864)
(2.12305e-05 -0.000148867 0.0105733)
(-2.12305e-05 -0.000148867 0.0105733)
(-6.2809e-05 -0.000146647 0.0105864)
(-0.00010146 -0.000142293 0.0106132)
(-0.000134974 -0.000134974 0.0106545)
(-0.000164173 -0.000126431 0.0107107)
(0.000165486 -0.000165486 0.0107647)
(0.000126432 -0.000164173 0.0107107)
(9.3634e-05 -0.000174373 0.0106723)
(5.78243e-05 -0.000177763 0.0106471)
(1.94289e-05 -0.0001798 0.0106348)
(-1.94289e-05 -0.0001798 0.0106348)
(-5.78244e-05 -0.000177763 0.0106471)
(-9.36337e-05 -0.000174373 0.0106723)
(-0.000126431 -0.000164173 0.0107107)
(-0.000165486 -0.000165486 0.0107647)
(6.11018e-05 6.1102e-05 0.0107695)
(4.80164e-05 6.28588e-05 0.0107525)
(3.66326e-05 6.84105e-05 0.0107392)
(2.29629e-05 7.11506e-05 0.0107299)
(7.77753e-06 7.26836e-05 0.0107252)
(-7.77746e-06 7.26837e-05 0.0107252)
(-2.29628e-05 7.11506e-05 0.0107299)
(-3.66326e-05 6.84105e-05 0.0107392)
(-4.80165e-05 6.28587e-05 0.0107525)
(-6.11019e-05 6.11018e-05 0.0107695)
(6.28587e-05 4.80164e-05 0.0107525)
(5.38737e-05 5.38738e-05 0.0107316)
(4.18697e-05 5.88654e-05 0.0107148)
(2.64631e-05 6.2182e-05 0.0107032)
(9.03977e-06 6.39102e-05 0.0106972)
(-9.03976e-06 6.39102e-05 0.0106972)
(-2.64632e-05 6.2182e-05 0.0107032)
(-4.18698e-05 5.88653e-05 0.0107148)
(-5.38737e-05 5.38737e-05 0.0107316)
(-6.28586e-05 4.80164e-05 0.0107525)
(6.84105e-05 3.66326e-05 0.0107392)
(5.88653e-05 4.18697e-05 0.0107148)
(4.58152e-05 4.58152e-05 0.0106955)
(2.89536e-05 4.83966e-05 0.0106821)
(9.89238e-06 4.96867e-05 0.0106753)
(-9.89235e-06 4.96867e-05 0.0106753)
(-2.89536e-05 4.83966e-05 0.0106821)
(-4.58152e-05 4.58153e-05 0.0106955)
(-5.88654e-05 4.18699e-05 0.0107148)
(-6.84105e-05 3.66327e-05 0.0107392)
(7.11507e-05 2.29629e-05 0.0107299)
(6.2182e-05 2.64631e-05 0.0107032)
(4.83966e-05 2.89537e-05 0.0106821)
(3.05809e-05 3.05809e-05 0.0106677)
(1.04493e-05 3.13913e-05 0.0106604)
(-1.04493e-05 3.13913e-05 0.0106604)
(-3.05809e-05 3.05809e-05 0.0106677)
(-4.83966e-05 2.89537e-05 0.0106821)
(-6.2182e-05 2.64631e-05 0.0107032)
(-7.11507e-05 2.29629e-05 0.0107299)
(7.26837e-05 7.77754e-06 0.0107252)
(6.39102e-05 9.03974e-06 0.0106972)
(4.96867e-05 9.89238e-06 0.0106753)
(3.13913e-05 1.04493e-05 0.0106604)
(1.07254e-05 1.07254e-05 0.0106528)
(-1.07254e-05 1.07254e-05 0.0106528)
(-3.13913e-05 1.04493e-05 0.0106604)
(-4.96867e-05 9.89238e-06 0.0106753)
(-6.39102e-05 9.03975e-06 0.0106972)
(-7.26836e-05 7.77755e-06 0.0107252)
(7.26837e-05 -7.77743e-06 0.0107252)
(6.39102e-05 -9.03978e-06 0.0106972)
(4.96867e-05 -9.89235e-06 0.0106753)
(3.13913e-05 -1.04493e-05 0.0106604)
(1.07254e-05 -1.07254e-05 0.0106528)
(-1.07254e-05 -1.07254e-05 0.0106528)
(-3.13913e-05 -1.04493e-05 0.0106604)
(-4.96867e-05 -9.89235e-06 0.0106753)
(-6.39101e-05 -9.03979e-06 0.0106972)
(-7.26836e-05 -7.77749e-06 0.0107252)
(7.11506e-05 -2.29628e-05 0.0107299)
(6.2182e-05 -2.64632e-05 0.0107032)
(4.83966e-05 -2.89536e-05 0.0106821)
(3.05809e-05 -3.05808e-05 0.0106677)
(1.04493e-05 -3.13913e-05 0.0106604)
(-1.04493e-05 -3.13913e-05 0.0106604)
(-3.05808e-05 -3.05808e-05 0.0106677)
(-4.83966e-05 -2.89536e-05 0.0106821)
(-6.2182e-05 -2.64632e-05 0.0107032)
(-7.11506e-05 -2.29628e-05 0.0107299)
(6.84105e-05 -3.66327e-05 0.0107392)
(5.88653e-05 -4.18698e-05 0.0107148)
(4.58153e-05 -4.58152e-05 0.0106955)
(2.89536e-05 -4.83966e-05 0.0106821)
(9.89238e-06 -4.96867e-05 0.0106753)
(-9.89236e-06 -4.96867e-05 0.0106753)
(-2.89536e-05 -4.83966e-05 0.0106821)
(-4.58153e-05 -4.58153e-05 0.0106955)
(-5.88653e-05 -4.18699e-05 0.0107148)
(-6.84104e-05 -3.66325e-05 0.0107392)
(6.28587e-05 -4.80165e-05 0.0107525)
(5.38737e-05 -5.38737e-05 0.0107316)
(4.18699e-05 -5.88653e-05 0.0107148)
(2.64632e-05 -6.2182e-05 0.0107032)
(9.03974e-06 -6.39102e-05 0.0106972)
(-9.0398e-06 -6.39102e-05 0.0106972)
(-2.64632e-05 -6.2182e-05 0.0107032)
(-4.18699e-05 -5.88653e-05 0.0107148)
(-5.38735e-05 -5.38735e-05 0.0107316)
(-6.28586e-05 -4.80163e-05 0.0107525)
(6.11019e-05 -6.11019e-05 0.0107695)
(4.80164e-05 -6.28587e-05 0.0107525)
(3.66326e-05 -6.84105e-05 0.0107392)
(2.29629e-05 -7.11506e-05 0.0107299)
(7.77752e-06 -7.26836e-05 0.0107252)
(-7.77748e-06 -7.26836e-05 0.0107252)
(-2.29628e-05 -7.11506e-05 0.0107299)
(-3.66325e-05 -6.84104e-05 0.0107392)
(-4.80164e-05 -6.28586e-05 0.0107525)
(-6.1102e-05 -6.1102e-05 0.0107695)
(2.20485e-05 2.20486e-05 0.0107714)
(1.77738e-05 2.35187e-05 0.0107653)
(1.38969e-05 2.61218e-05 0.0107603)
(8.81584e-06 2.75656e-05 0.0107566)
(3.00596e-06 2.8351e-05 0.0107548)
(-3.00592e-06 2.8351e-05 0.0107548)
(-8.81572e-06 2.75656e-05 0.0107566)
(-1.38968e-05 2.61218e-05 0.0107603)
(-1.77739e-05 2.35186e-05 0.0107653)
(-2.20486e-05 2.20483e-05 0.0107714)
(2.35187e-05 1.77739e-05 0.0107653)
(2.07426e-05 2.07427e-05 0.0107573)
(1.65048e-05 2.32596e-05 0.0107505)
(1.05824e-05 2.49892e-05 0.0107456)
(3.64091e-06 2.58953e-05 0.0107431)
(-3.6409e-06 2.58953e-05 0.0107431)
(-1.05824e-05 2.49892e-05 0.0107456)
(-1.65049e-05 2.32595e-05 0.0107505)
(-2.07426e-05 2.07426e-05 0.0107573)
(-2.35186e-05 1.77738e-05 0.0107653)
(2.61218e-05 1.38968e-05 0.0107603)
(2.32596e-05 1.65049e-05 0.0107505)
(1.85647e-05 1.85647e-05 0.0107423)
(1.19158e-05 1.9967e-05 0.0107365)
(4.10304e-06 2.06833e-05 0.0107334)
(-4.10299e-06 2.06833e-05 0.0107334)
(-1.19157e-05 1.99671e-05 0.0107365)
(-1.85647e-05 1.85648e-05 0.0107423)
(-2.32596e-05 1.6505e-05 0.0107505)
(-2.61218e-05 1.38969e-05 0.0107603)
(2.75656e-05 8.81581e-06 0.0107566)
(2.49892e-05 1.05824e-05 0.0107456)
(1.9967e-05 1.19158e-05 0.0107365)
(1.28298e-05 1.28298e-05 0.0107299)
(4.42062e-06 1.32966e-05 0.0107266)
(-4.42057e-06 1.32966e-05 0.0107266)
(-1.28298e-05 1.28298e-05 0.0107299)
(-1.9967e-05 1.19158e-05 0.0107365)
(-2.49893e-05 1.05824e-05 0.0107456)
(-2.75656e-05 8.81583e-06 0.0107566)
(2.8351e-05 3.00595e-06 0.0107548)
(2.58953e-05 3.64088e-06 0.0107431)
(2.06833e-05 4.10304e-06 0.0107334)
(1.32966e-05 4.42063e-06 0.0107266)
(4.58235e-06 4.58236e-06 0.010723)
(-4.5823e-06 4.58235e-06 0.010723)
(-1.32966e-05 4.42062e-06 0.0107266)
(-2.06833e-05 4.10304e-06 0.0107334)
(-2.58953e-05 3.64091e-06 0.0107431)
(-2.8351e-05 3.00601e-06 0.0107548)
(2.8351e-05 -3.00593e-06 0.0107548)
(2.58953e-05 -3.6409e-06 0.0107431)
(2.06833e-05 -4.103e-06 0.0107334)
(1.32966e-05 -4.42058e-06 0.0107266)
(4.58235e-06 -4.5823e-06 0.010723)
(-4.58231e-06 -4.58231e-06 0.010723)
(-1.32966e-05 -4.42059e-06 0.0107266)
(-2.06832e-05 -4.103e-06 0.0107334)
(-2.58953e-05 -3.64092e-06 0.0107431)
(-2.8351e-05 -3.00594e-06 0.0107548)
(2.75656e-05 -8.81572e-06 0.0107566)
(2.49892e-05 -1.05824e-05 0.0107456)
(1.9967e-05 -1.19158e-05 0.0107365)
(1.28298e-05 -1.28298e-05 0.0107299)
(4.42062e-06 -1.32966e-05 0.0107266)
(-4.42059e-06 -1.32966e-05 0.0107266)
(-1.28298e-05 -1.28298e-05 0.0107299)
(-1.9967e-05 -1.19157e-05 0.0107365)
(-2.49893e-05 -1.05825e-05 0.0107456)
(-2.75655e-05 -8.81577e-06 0.0107566)
(2.61217e-05 -1.38968e-05 0.0107603)
(2.32595e-05 -1.6505e-05 0.0107505)
(1.85648e-05 -1.85647e-05 0.0107423)
(1.19158e-05 -1.9967e-05 0.0107365)
(4.10304e-06 -2.06833e-05 0.0107334)
(-4.10301e-06 -2.06833e-05 0.0107334)
(-1.19157e-05 -1.9967e-05 0.0107365)
(-1.85648e-05 -1.85648e-05 0.0107423)
(-2.32596e-05 -1.65051e-05 0.0107505)
(-2.61216e-05 -1.38967e-05 0.0107603)
(2.35186e-05 -1.77739e-05 0.0107653)
(2.07426e-05 -2.07425e-05 0.0107573)
(1.65051e-05 -2.32595e-05 0.0107505)
(1.05824e-05 -2.49892e-05 0.0107456)
(3.64089e-06 -2.58953e-05 0.0107431)
(-3.64092e-06 -2.58953e-05 0.0107431)
(-1.05825e-05 -2.49892e-05 0.0107456)
(-1.65051e-05 -2.32595e-05 0.0107505)
(-2.07424e-05 -2.07425e-05 0.0107573)
(-2.35185e-05 -1.77738e-05 0.0107653)
(2.20485e-05 -2.20486e-05 0.0107714)
(1.77739e-05 -2.35186e-05 0.0107653)
(1.38968e-05 -2.61218e-05 0.0107603)
(8.81577e-06 -2.75656e-05 0.0107566)
(3.00598e-06 -2.8351e-05 0.0107548)
(-3.00589e-06 -2.8351e-05 0.0107548)
(-8.81574e-06 -2.75655e-05 0.0107566)
(-1.38968e-05 -2.61217e-05 0.0107603)
(-1.77738e-05 -2.35184e-05 0.0107653)
(-2.20485e-05 -2.20485e-05 0.0107714)
(7.73463e-06 7.73471e-06 0.0107711)
(6.3496e-06 8.49961e-06 0.010769)
(5.05462e-06 9.60996e-06 0.0107671)
(3.23693e-06 1.027e-05 0.0107658)
(1.10966e-06 1.06265e-05 0.010765)
(-1.10966e-06 1.06265e-05 0.010765)
(-3.23685e-06 1.027e-05 0.0107658)
(-5.0545e-06 9.61004e-06 0.0107671)
(-6.34966e-06 8.49962e-06 0.010769)
(-7.73471e-06 7.73466e-06 0.0107711)
(8.4996e-06 6.34966e-06 0.010769)
(7.66261e-06 7.66267e-06 0.010766)
(6.21037e-06 8.79008e-06 0.0107633)
(4.02807e-06 9.58361e-06 0.0107614)
(1.3939e-06 1.00018e-05 0.0107603)
(-1.3939e-06 1.00018e-05 0.0107603)
(-4.02806e-06 9.58364e-06 0.0107614)
(-6.21045e-06 8.79009e-06 0.0107633)
(-7.66263e-06 7.66263e-06 0.010766)
(-8.49953e-06 6.34965e-06 0.010769)
(9.60997e-06 5.05462e-06 0.0107671)
(8.79003e-06 6.21041e-06 0.0107633)
(7.15683e-06 7.15687e-06 0.01076)
(4.65107e-06 7.81856e-06 0.0107576)
(1.61161e-06 8.16133e-06 0.0107563)
(-1.61155e-06 8.16135e-06 0.0107563)
(-4.651e-06 7.8186e-06 0.0107576)
(-7.15678e-06 7.15692e-06 0.01076)
(-8.79009e-06 6.21055e-06 0.0107633)
(-9.61004e-06 5.05467e-06 0.0107671)
(1.027e-05 3.23691e-06 0.0107658)
(9.58359e-06 4.02808e-06 0.0107614)
(7.81852e-06 4.65109e-06 0.0107576)
(5.09112e-06 5.09115e-06 0.0107548)
(1.76587e-06 5.31933e-06 0.0107534)
(-1.7658e-06 5.31933e-06 0.0107534)
(-5.09108e-06 5.09114e-06 0.0107548)
(-7.8185e-06 4.65106e-06 0.0107576)
(-9.58362e-06 4.02803e-06 0.0107614)
(-1.027e-05 3.23692e-06 0.0107658)
(1.06265e-05 1.10965e-06 0.010765)
(1.00018e-05 1.39389e-06 0.0107603)
(8.16131e-06 1.61162e-06 0.0107563)
(5.31931e-06 1.76588e-06 0.0107534)
(1.84569e-06 1.8457e-06 0.0107518)
(-1.84564e-06 1.84569e-06 0.0107518)
(-5.31927e-06 1.76585e-06 0.0107534)
(-8.16128e-06 1.6116e-06 0.0107563)
(-1.00018e-05 1.39389e-06 0.0107603)
(-1.06265e-05 1.1097e-06 0.010765)
(1.06265e-05 -1.10964e-06 0.010765)
(1.00018e-05 -1.39389e-06 0.0107603)
(8.16133e-06 -1.61155e-06 0.0107563)
(5.31931e-06 -1.7658e-06 0.0107534)
(1.84568e-06 -1.84563e-06 0.0107518)
(-1.84565e-06 -1.84564e-06 0.0107518)
(-5.31927e-06 -1.76583e-06 0.0107534)
(-8.16129e-06 -1.61158e-06 0.0107563)
(-1.00017e-05 -1.39392e-06 0.0107603)
(-1.06265e-05 -1.10963e-06 0.010765)
(1.02701e-05 -3.23687e-06 0.0107658)
(9.58362e-06 -4.02805e-06 0.0107614)
(7.81856e-06 -4.651e-06 0.0107576)
(5.09112e-06 -5.09107e-06 0.0107548)
(1.76585e-06 -5.31927e-06 0.0107534)
(-1.76583e-06 -5.31927e-06 0.0107534)
(-5.0911e-06 -5.0911e-06 0.0107548)
(-7.81854e-06 -4.65103e-06 0.0107576)
(-9.58359e-06 -4.0281e-06 0.0107614)
(-1.027e-05 -3.23687e-06 0.0107658)
(9.61006e-06 -5.05458e-06 0.0107671)
(8.7901e-06 -6.2105e-06 0.0107633)
(7.15689e-06 -7.15677e-06 0.01076)
(4.65104e-06 -7.8185e-06 0.0107576)
(1.61159e-06 -8.1613e-06 0.0107563)
(-1.61158e-06 -8.16129e-06 0.0107563)
(-4.65103e-06 -7.81855e-06 0.0107576)
(-7.15688e-06 -7.15688e-06 0.01076)
(-8.79005e-06 -6.2106e-06 0.0107633)
(-9.60993e-06 -5.05457e-06 0.0107671)
(8.49962e-06 -6.34971e-06 0.010769)
(7.66269e-06 -7.66269e-06 0.010766)
(6.21056e-06 -8.79011e-06 0.0107633)
(4.02801e-06 -9.58363e-06 0.0107614)
(1.39388e-06 -1.00018e-05 0.0107603)
(-1.39392e-06 -1.00017e-05 0.0107603)
(-4.02809e-06 -9.58358e-06 0.0107614)
(-6.2106e-06 -8.79006e-06 0.0107633)
(-7.66255e-06 -7.6626e-06 0.010766)
(-8.49944e-06 -6.34963e-06 0.010769)
(7.73466e-06 -7.73473e-06 0.0107711)
(6.34969e-06 -8.49959e-06 0.010769)
(5.05467e-06 -9.61008e-06 0.0107671)
(3.23692e-06 -1.027e-05 0.0107658)
(1.10971e-06 -1.06265e-05 0.010765)
(-1.10963e-06 -1.06265e-05 0.010765)
(-3.23687e-06 -1.027e-05 0.0107658)
(-5.05465e-06 -9.60994e-06 0.0107671)
(-6.34963e-06 -8.49947e-06 0.010769)
(-7.73468e-06 -7.73466e-06 0.0107711)
(2.74382e-06 2.74391e-06 0.0107704)
(2.2734e-06 3.064e-06 0.0107698)
(1.82741e-06 3.5001e-06 0.0107691)
(1.17624e-06 3.76951e-06 0.0107686)
(4.04436e-07 3.91514e-06 0.0107683)
(-4.04465e-07 3.91514e-06 0.0107683)
(-1.17617e-06 3.76952e-06 0.0107686)
(-1.82727e-06 3.5001e-06 0.0107691)
(-2.27345e-06 3.06407e-06 0.0107698)
(-2.74393e-06 2.74393e-06 0.0107704)
(3.06398e-06 2.27344e-06 0.0107698)
(2.79856e-06 2.79859e-06 0.0107687)
(2.29393e-06 3.2569e-06 0.0107677)
(1.49869e-06 3.58553e-06 0.0107669)
(5.20542e-07 3.75997e-06 0.0107666)
(-5.20566e-07 3.76e-06 0.0107666)
(-1.49872e-06 3.58559e-06 0.0107669)
(-2.29395e-06 3.25693e-06 0.0107677)
(-2.79844e-06 2.79857e-06 0.0107687)
(-3.06391e-06 2.2735e-06 0.0107698)
(3.50008e-06 1.82739e-06 0.0107691)
(3.25687e-06 2.29395e-06 0.0107677)
(2.68682e-06 2.68684e-06 0.0107664)
(1.76099e-06 2.9673e-06 0.0107655)
(6.12851e-07 3.11428e-06 0.010765)
(-6.12788e-07 3.1143e-06 0.010765)
(-1.76093e-06 2.96737e-06 0.0107655)
(-2.68676e-06 2.68693e-06 0.0107664)
(-3.25686e-06 2.29407e-06 0.0107677)
(-3.50017e-06 1.82735e-06 0.0107691)
(3.76951e-06 1.17623e-06 0.0107686)
(3.58553e-06 1.49873e-06 0.0107669)
(2.96728e-06 1.76101e-06 0.0107655)
(1.95045e-06 1.95046e-06 0.0107644)
(6.79742e-07 2.0499e-06 0.0107638)
(-6.79668e-07 2.0499e-06 0.0107638)
(-1.9504e-06 1.95046e-06 0.0107644)
(-2.96725e-06 1.76099e-06 0.0107655)
(-3.58555e-06 1.49868e-06 0.0107669)
(-3.76954e-06 1.17619e-06 0.0107686)
(3.91516e-06 4.04445e-07 0.0107683)
(3.75996e-06 5.20558e-07 0.0107666)
(3.11424e-06 6.12857e-07 0.010765)
(2.04988e-06 6.79746e-07 0.0107638)
(7.14794e-07 7.14802e-07 0.0107631)
(-7.1473e-07 7.14795e-07 0.0107631)
(-2.04983e-06 6.7973e-07 0.0107638)
(-3.11421e-06 6.12845e-07 0.010765)
(-3.75996e-06 5.20548e-07 0.0107666)
(-3.91516e-06 4.04495e-07 0.0107683)
(3.91516e-06 -4.04482e-07 0.0107683)
(3.75999e-06 -5.20556e-07 0.0107666)
(3.11427e-06 -6.1278e-07 0.010765)
(2.04988e-06 -6.7966e-07 0.0107638)
(7.1479e-07 -7.14722e-07 0.0107631)
(-7.14738e-07 -7.14733e-07 0.0107631)
(-2.04983e-06 -6.79688e-07 0.0107638)
(-3.11423e-06 -6.12805e-07 0.010765)
(-3.75995e-06 -5.20567e-07 0.0107666)
(-3.91515e-06 -4.04425e-07 0.0107683)
(3.76955e-06 -1.17621e-06 0.0107686)
(3.5856e-06 -1.4987e-06 0.0107669)
(2.96734e-06 -1.76091e-06 0.0107655)
(1.95044e-06 -1.95038e-06 0.0107644)
(6.79721e-07 -2.04983e-06 0.0107638)
(-6.79697e-07 -2.04984e-06 0.0107638)
(-1.95041e-06 -1.95041e-06 0.0107644)
(-2.96729e-06 -1.76094e-06 0.0107655)
(-3.58553e-06 -1.49873e-06 0.0107669)
(-3.7695e-06 -1.17617e-06 0.0107686)
(3.50017e-06 -1.82727e-06 0.0107691)
(3.25697e-06 -2.29402e-06 0.0107677)
(2.68689e-06 -2.68678e-06 0.0107664)
(1.76096e-06 -2.96727e-06 0.0107655)
(6.12825e-07 -3.11423e-06 0.010765)
(-6.12815e-07 -3.11425e-06 0.010765)
(-1.76094e-06 -2.96731e-06 0.0107655)
(-2.68687e-06 -2.68687e-06 0.0107664)
(-3.25688e-06 -2.29417e-06 0.0107677)
(-3.50006e-06 -1.82733e-06 0.0107691)
(3.064e-06 -2.27342e-06 0.0107698)
(2.79857e-06 -2.79858e-06 0.0107687)
(2.29409e-06 -3.25695e-06 0.0107677)
(1.49867e-06 -3.58557e-06 0.0107669)
(5.20537e-07 -3.75997e-06 0.0107666)
(-5.20577e-07 -3.75997e-06 0.0107666)
(-1.49872e-06 -3.58553e-06 0.0107669)
(-2.29415e-06 -3.2569e-06 0.0107677)
(-2.79845e-06 -2.7985e-06 0.0107687)
(-3.06379e-06 -2.27345e-06 0.0107698)
(2.74385e-06 -2.74391e-06 0.0107704)
(2.27343e-06 -3.06394e-06 0.0107698)
(1.82742e-06 -3.50016e-06 0.0107691)
(1.17624e-06 -3.76954e-06 0.0107686)
(4.04484e-07 -3.91515e-06 0.0107683)
(-4.0444e-07 -3.91514e-06 0.0107683)
(-1.17616e-06 -3.76948e-06 0.0107686)
(-1.82737e-06 -3.50009e-06 0.0107691)
(-2.27343e-06 -3.06382e-06 0.0107698)
(-2.74382e-06 -2.74387e-06 0.0107704)
(9.83812e-07 9.83728e-07 0.0107701)
(8.19173e-07 1.10857e-06 0.0107699)
(6.62029e-07 1.27404e-06 0.0107697)
(4.27314e-07 1.37839e-06 0.0107695)
(1.47152e-07 1.43488e-06 0.0107694)
(-1.47227e-07 1.43488e-06 0.0107694)
(-4.27317e-07 1.3784e-06 0.0107695)
(-6.61939e-07 1.27412e-06 0.0107697)
(-8.19127e-07 1.10869e-06 0.0107699)
(-9.83764e-07 9.83959e-07 0.0107701)
(1.10856e-06 8.19155e-07 0.0107699)
(1.02016e-06 1.02014e-06 0.0107696)
(8.41858e-07 1.19764e-06 0.0107692)
(5.52451e-07 1.32647e-06 0.0107689)
(1.92308e-07 1.39522e-06 0.0107688)
(-1.92324e-07 1.39526e-06 0.0107688)
(-5.52437e-07 1.32657e-06 0.0107689)
(-8.41841e-07 1.19778e-06 0.0107692)
(-1.02006e-06 1.02028e-06 0.0107696)
(-1.10861e-06 8.1923e-07 0.0107699)
(1.27396e-06 6.62029e-07 0.0107697)
(1.19765e-06 8.41856e-07 0.0107692)
(9.96154e-07 9.96141e-07 0.0107687)
(6.56426e-07 1.10778e-06 0.0107684)
(2.29088e-07 1.16677e-06 0.0107682)
(-2.2902e-07 1.1668e-06 0.0107682)
(-6.56325e-07 1.10785e-06 0.0107684)
(-9.96011e-07 9.96205e-07 0.0107687)
(-1.19769e-06 8.41972e-07 0.0107692)
(-1.27415e-06 6.61965e-07 0.0107697)
(1.37834e-06 4.27355e-07 0.0107695)
(1.32648e-06 5.525e-07 0.0107689)
(1.10779e-06 6.56443e-07 0.0107684)
(7.32647e-07 7.32657e-07 0.0107679)
(2.56146e-07 7.73015e-07 0.0107677)
(-2.56068e-07 7.73016e-07 0.0107677)
(-7.3258e-07 7.32654e-07 0.0107679)
(-1.10771e-06 6.56389e-07 0.0107684)
(-1.3265e-06 5.52384e-07 0.0107689)
(-1.37844e-06 4.27324e-07 0.0107695)
(1.43488e-06 1.47172e-07 0.0107694)
(1.39521e-06 1.92333e-07 0.0107688)
(1.16675e-06 2.29097e-07 0.0107682)
(7.72999e-07 2.56154e-07 0.0107677)
(2.70452e-07 2.70461e-07 0.0107675)
(-2.70384e-07 2.70451e-07 0.0107675)
(-7.72948e-07 2.56129e-07 0.0107677)
(-1.16671e-06 2.29067e-07 0.0107682)
(-1.39521e-06 1.92289e-07 0.0107688)
(-1.4349e-06 1.47226e-07 0.0107694)
(1.43487e-06 -1.47243e-07 0.0107694)
(1.39525e-06 -1.92323e-07 0.0107688)
(1.16678e-06 -2.29012e-07 0.0107682)
(7.73006e-07 -2.56061e-07 0.0107677)
(2.70442e-07 -2.70379e-07 0.0107675)
(-2.704e-07 -2.70391e-07 0.0107675)
(-7.72958e-07 -2.56098e-07 0.0107677)
(-1.16673e-06 -2.2905e-07 0.0107682)
(-1.3952e-06 -1.92345e-07 0.0107688)
(-1.43488e-06 -1.47174e-07 0.0107694)
(1.3784e-06 -4.27291e-07 0.0107695)
(1.32658e-06 -5.52413e-07 0.0107689)
(1.10783e-06 -6.56322e-07 0.0107684)
(7.32636e-07 -7.3259e-07 0.0107679)
(2.56121e-07 -7.7295e-07 0.0107677)
(-2.56104e-07 -7.72952e-07 0.0107677)
(-7.32609e-07 -7.32606e-07 0.0107679)
(-1.10778e-06 -6.56373e-07 0.0107684)
(-1.32647e-06 -5.52488e-07 0.0107689)
(-1.37837e-06 -4.27288e-07 0.0107695)
(1.27414e-06 -6.61874e-07 0.0107697)
(1.19775e-06 -8.41859e-07 0.0107692)
(9.9616e-07 -9.9606e-07 0.0107687)
(6.56377e-07 -1.10775e-06 0.0107684)
(2.29074e-07 -1.16672e-06 0.0107682)
(-2.29052e-07 -1.16673e-06 0.0107682)
(-6.56379e-07 -1.10779e-06 0.0107684)
(-9.96174e-07 -9.96179e-07 0.0107687)
(-1.19766e-06 -8.42031e-07 0.0107692)
(-1.27402e-06 -6.61969e-07 0.0107697)
(1.10875e-06 -8.19226e-07 0.0107699)
(1.02019e-06 -1.02021e-06 0.0107696)
(8.4194e-07 -1.19773e-06 0.0107692)
(5.52413e-07 -1.32649e-06 0.0107689)
(1.92317e-07 -1.39519e-06 0.0107688)
(-1.92353e-07 -1.39519e-06 0.0107688)
(-5.52496e-07 -1.32647e-06 0.0107689)
(-8.42022e-07 -1.19764e-06 0.0107692)
(-1.02004e-06 -1.02005e-06 0.0107696)
(-1.10845e-06 -8.19211e-07 0.0107699)
(9.83873e-07 -9.83884e-07 0.0107701)
(8.19225e-07 -1.10863e-06 0.0107699)
(6.62093e-07 -1.27413e-06 0.0107697)
(4.27373e-07 -1.37841e-06 0.0107695)
(1.47227e-07 -1.43489e-06 0.0107694)
(-1.47184e-07 -1.43488e-06 0.0107694)
(-4.27277e-07 -1.37835e-06 0.0107695)
(-6.61977e-07 -1.27401e-06 0.0107697)
(-8.19227e-07 -1.10845e-06 0.0107699)
(-9.83809e-07 -9.83801e-07 0.0107701)
(3.54706e-07 3.54597e-07 0.0107699)
(2.96115e-07 4.01831e-07 0.01077)
(2.40029e-07 4.63606e-07 0.0107699)
(1.55185e-07 5.03014e-07 0.0107698)
(5.34782e-08 5.2438e-07 0.0107698)
(-5.35319e-08 5.24381e-07 0.0107698)
(-1.55169e-07 5.02998e-07 0.0107698)
(-2.39943e-07 4.63597e-07 0.0107699)
(-2.96079e-07 4.01916e-07 0.01077)
(-3.54664e-07 3.5478e-07 0.0107699)
(4.01809e-07 2.96078e-07 0.01077)
(3.71424e-07 3.71385e-07 0.0107699)
(3.07792e-07 4.38482e-07 0.0107697)
(2.02526e-07 4.87531e-07 0.0107696)
(7.05949e-08 5.13808e-07 0.0107696)
(-7.06053e-08 5.13836e-07 0.0107696)
(-2.0253e-07 4.87589e-07 0.0107696)
(-3.07757e-07 4.38537e-07 0.0107697)
(-3.7134e-07 3.71463e-07 0.0107699)
(-4.01827e-07 2.96153e-07 0.01077)
(4.63561e-07 2.40045e-07 0.0107699)
(4.38506e-07 3.0779e-07 0.0107697)
(3.66591e-07 3.66584e-07 0.0107695)
(2.42393e-07 4.09507e-07 0.0107694)
(8.47505e-08 4.32325e-07 0.0107693)
(-8.47112e-08 4.32338e-07 0.0107693)
(-2.42347e-07 4.09556e-07 0.0107694)
(-3.66484e-07 3.6663e-07 0.0107695)
(-4.38457e-07 3.07847e-07 0.0107697)
(-4.63659e-07 2.40036e-07 0.0107699)
(5.02999e-07 1.55214e-07 0.0107698)
(4.87543e-07 2.02543e-07 0.0107696)
(4.0951e-07 2.42395e-07 0.0107694)
(2.71916e-07 2.71919e-07 0.0107693)
(9.52731e-08 2.87652e-07 0.0107692)
(-9.52169e-08 2.87655e-07 0.0107692)
(-2.71877e-07 2.71937e-07 0.0107693)
(-4.09462e-07 2.42398e-07 0.0107694)
(-4.87515e-07 2.02486e-07 0.0107696)
(-5.03021e-07 1.55178e-07 0.0107698)
(5.24393e-07 5.34848e-08 0.0107698)
(5.13806e-07 7.05901e-08 0.0107696)
(4.32319e-07 8.47485e-08 0.0107693)
(2.87651e-07 9.52779e-08 0.0107692)
(1.00874e-07 1.00878e-07 0.0107691)
(-1.00813e-07 1.00874e-07 0.0107691)
(-2.87602e-07 9.52756e-08 0.0107692)
(-4.32282e-07 8.47619e-08 0.0107693)
(-5.13787e-07 7.05951e-08 0.0107696)
(-5.24383e-07 5.35186e-08 0.0107698)
(5.24378e-07 -5.35355e-08 0.0107698)
(5.13838e-07 -7.05954e-08 0.0107696)
(4.32349e-07 -8.46945e-08 0.0107693)
(2.87657e-07 -9.52112e-08 0.0107692)
(1.00869e-07 -1.00809e-07 0.0107691)
(-1.00819e-07 -1.00816e-07 0.0107691)
(-2.87601e-07 -9.52277e-08 0.0107692)
(-4.32294e-07 -8.47146e-08 0.0107693)
(-5.13794e-07 -7.06152e-08 0.0107696)
(-5.24379e-07 -5.34908e-08 0.0107698)
(5.03021e-07 -1.55157e-07 0.0107698)
(4.87603e-07 -2.0249e-07 0.0107696)
(4.09547e-07 -2.42337e-07 0.0107694)
(2.71923e-07 -2.71879e-07 0.0107693)
(9.52689e-08 -2.87596e-07 0.0107692)
(-9.52317e-08 -2.87604e-07 0.0107692)
(-2.71887e-07 -2.71894e-07 0.0107693)
(-4.09513e-07 -2.42362e-07 0.0107694)
(-4.87524e-07 -2.02528e-07 0.0107696)
(-5.02982e-07 -1.55121e-07 0.0107698)
(4.63646e-07 -2.39943e-07 0.0107699)
(4.38542e-07 -3.07822e-07 0.0107697)
(3.66605e-07 -3.66555e-07 0.0107695)
(2.42396e-07 -4.09472e-07 0.0107694)
(8.47562e-08 -4.32275e-07 0.0107693)
(-8.47295e-08 -4.32298e-07 0.0107693)
(-2.42359e-07 -4.09521e-07 0.0107694)
(-3.66576e-07 -3.66585e-07 0.0107695)
(-4.3844e-07 -3.07835e-07 0.0107697)
(-4.63581e-07 -2.39981e-07 0.0107699)
(4.0182e-07 -2.96072e-07 0.01077)
(3.71403e-07 -3.71381e-07 0.0107699)
(3.07889e-07 -4.38439e-07 0.0107697)
(2.02551e-07 -4.87486e-07 0.0107696)
(7.0594e-08 -5.13774e-07 0.0107696)
(-7.06353e-08 -5.13782e-07 0.0107696)
(-2.02525e-07 -4.87512e-07 0.0107696)
(-3.07827e-07 -4.38455e-07 0.0107697)
(-3.71331e-07 -3.71353e-07 0.0107699)
(-4.01786e-07 -2.96183e-07 0.01077)
(3.54623e-07 -3.54628e-07 0.0107699)
(2.9616e-07 -4.01714e-07 0.01077)
(2.40081e-07 -4.63558e-07 0.0107699)
(1.55168e-07 -5.03001e-07 0.0107698)