/*--------------------------------*- C++ -*----------------------------------*\
| =========                 |                                                 |
| \\      /  F ield         | OpenFOAM: The Open Source CFD Toolbox           |
|  \\    /   O peration     | Version:  2412                                  |
|   \\  /    A nd           | Website:  www.openfoam.com                      |
|    \\/     M anipulation  |                                                 |
\*---------------------------------------------------------------------------*/
FoamFile
{
    version     2.0;
    format      ascii;
    arch        "LSB;label=32;scalar=64";
    class       surfaceScalarField;
    location    "2.4";
    object      phi;
}
// * * * * * * * * * * * * * * * * * * * * * * * * * * * * * * * * * * * * * //

dimensions      [0 3 -1 0 0 0 0];

oriented        oriented;

internalField   nonuniform List<scalar> 
43700
(
1.54236e-07
1.54236e-07
5.40666e-07
-1.8956e-07
-1.8956e-07
1.12932e-07
1.35205e-07
5.81199e-07
-1.65716e-07
7.45543e-08
1.24125e-07
6.10799e-07
-1.57116e-07
3.69357e-08
1.16813e-07
6.30255e-07
-1.49737e-07
-1.26968e-15
1.13371e-07
6.39953e-07
-1.4646e-07
-3.69357e-08
1.13371e-07
6.39953e-07
-1.4646e-07
-7.45543e-08
1.16813e-07
6.30255e-07
-1.49737e-07
-1.12932e-07
1.24125e-07
6.10799e-07
-1.57116e-07
-1.54236e-07
1.35205e-07
5.81199e-07
-1.65716e-07
1.54236e-07
5.40666e-07
-1.8956e-07
-1.8956e-07
1.35205e-07
1.12932e-07
5.81199e-07
-1.65716e-07
1.00387e-07
1.00387e-07
6.15479e-07
6.6206e-08
9.13988e-08
6.40598e-07
3.28129e-08
8.54544e-08
6.57248e-07
-1.63706e-15
8.25808e-08
6.65575e-07
-3.28129e-08
8.25808e-08
6.65575e-07
-6.62061e-08
8.54544e-08
6.57248e-07
-1.00387e-07
9.13988e-08
6.40598e-07
-1.35205e-07
1.00387e-07
6.15479e-07
1.12932e-07
5.81199e-07
-1.65716e-07
1.24125e-07
7.45543e-08
6.10799e-07
-1.57116e-07
9.13988e-08
6.6206e-08
6.40598e-07
5.99797e-08
5.99797e-08
6.62711e-07
2.96671e-08
5.58497e-08
6.7748e-07
9.46422e-17
5.38363e-08
6.8489e-07
-2.96671e-08
5.38363e-08
6.8489e-07
-5.99797e-08
5.58497e-08
6.7748e-07
-9.13988e-08
5.99797e-08
6.62711e-07
-1.24125e-07
6.62061e-08
6.40598e-07
7.45543e-08
6.10799e-07
-1.57116e-07
1.16813e-07
3.69357e-08
6.30255e-07
-1.49737e-07
8.54544e-08
3.28129e-08
6.57248e-07
5.58497e-08
2.96671e-08
6.7748e-07
2.75659e-08
2.75659e-08
6.9107e-07
9.62072e-16
2.6537e-08
6.97907e-07
-2.75659e-08
2.6537e-08
6.97907e-07
-5.58497e-08
2.75659e-08
6.9107e-07
-8.54544e-08
2.96671e-08
6.7748e-07
-1.16813e-07
3.28129e-08
6.57248e-07
3.69357e-08
6.30255e-07
-1.49737e-07
1.13371e-07
-2.45455e-15
6.39953e-07
-1.4646e-07
8.25808e-08
-1.89825e-15
6.65575e-07
5.38363e-08
4.67094e-16
6.8489e-07
2.6537e-08
1.69637e-15
6.97907e-07
1.3602e-15
1.81153e-15
7.04467e-07
-2.6537e-08
1.19076e-15
7.04467e-07
-5.38363e-08
1.28425e-15
6.97907e-07
-8.25808e-08
1.83267e-15
6.8489e-07
-1.13371e-07
3.998e-15
6.65575e-07
3.37632e-15
6.39953e-07
-1.4646e-07
1.13371e-07
-3.69357e-08
6.39953e-07
-1.4646e-07
8.25808e-08
-3.28129e-08
6.65575e-07
5.38363e-08
-2.96671e-08
6.8489e-07
2.6537e-08
-2.75659e-08
6.97907e-07
7.52633e-16
-2.6537e-08
7.04467e-07
-2.6537e-08
-2.6537e-08
7.04467e-07
-5.38363e-08
-2.75659e-08
6.97907e-07
-8.25808e-08
-2.96671e-08
6.8489e-07
-1.13371e-07
-3.28129e-08
6.65575e-07
-3.69357e-08
6.39953e-07
-1.4646e-07
1.16813e-07
-7.45543e-08
6.30255e-07
-1.49737e-07
8.54544e-08
-6.62061e-08
6.57248e-07
5.58497e-08
-5.99797e-08
6.7748e-07
2.75659e-08
-5.58497e-08
6.9107e-07
3.38897e-16
-5.38363e-08
6.97907e-07
-2.75659e-08
-5.38363e-08
6.97907e-07
-5.58497e-08
-5.58497e-08
6.9107e-07
-8.54544e-08
-5.99797e-08
6.7748e-07
-1.16813e-07
-6.6206e-08
6.57248e-07
-7.45543e-08
6.30255e-07
-1.49737e-07
1.24125e-07
-1.12932e-07
6.10799e-07
-1.57116e-07
9.13988e-08
-1.00387e-07
6.40598e-07
5.99797e-08
-9.13988e-08
6.62711e-07
2.96671e-08
-8.54544e-08
6.7748e-07
1.08035e-15
-8.25808e-08
6.8489e-07
-2.96671e-08
-8.25808e-08
6.8489e-07
-5.99797e-08
-8.54544e-08
6.7748e-07
-9.13988e-08
-9.13988e-08
6.62711e-07
-1.24125e-07
-1.00387e-07
6.40598e-07
-1.12932e-07
6.10799e-07
-1.57116e-07
1.35205e-07
-1.54236e-07
5.81199e-07
-1.65716e-07
1.00387e-07
-1.35205e-07
6.15479e-07
6.62061e-08
-1.24125e-07
6.40598e-07
3.28129e-08
-1.16813e-07
6.57248e-07
3.48374e-15
-1.13371e-07
6.65575e-07
-3.28129e-08
-1.13371e-07
6.65575e-07
-6.6206e-08
-1.16813e-07
6.57248e-07
-1.00387e-07
-1.24125e-07
6.40598e-07
-1.35205e-07
-1.35205e-07
6.15479e-07
-1.54236e-07
5.81199e-07
-1.65716e-07
1.54236e-07
5.40666e-07
-1.8956e-07
-1.8956e-07
1.12932e-07
5.81199e-07
-1.65716e-07
7.45543e-08
6.10799e-07
-1.57116e-07
3.69357e-08
6.30255e-07
-1.49737e-07
2.89722e-15
6.39953e-07
-1.4646e-07
-3.69357e-08
6.39953e-07
-1.4646e-07
-7.45543e-08
6.30255e-07
-1.49737e-07
-1.12932e-07
6.10799e-07
-1.57116e-07
-1.54236e-07
5.81199e-07
-1.65716e-07
5.40666e-07
-1.8956e-07
-1.8956e-07
6.49653e-08
6.49653e-08
5.5953e-07
-7.43973e-08
-7.43973e-08
5.1455e-08
6.44524e-08
6.03516e-07
-7.3259e-08
3.57271e-08
6.44598e-08
6.35692e-07
-7.36249e-08
1.82475e-08
6.41942e-08
6.56901e-07
-7.33606e-08
1.12981e-15
6.41428e-08
6.67495e-07
-7.3437e-08
-1.82475e-08
6.41428e-08
6.67495e-07
-7.3437e-08
-3.57271e-08
6.41942e-08
6.56901e-07
-7.33606e-08
-5.1455e-08
6.44597e-08
6.35692e-07
-7.36249e-08
-6.49653e-08
6.44524e-08
6.03516e-07
-7.3259e-08
6.49653e-08
5.5953e-07
-7.43973e-08
-7.43973e-08
6.44524e-08
5.1455e-08
6.03516e-07
-7.3259e-08
5.16109e-08
5.16109e-08
6.41162e-07
3.60481e-08
5.16797e-08
6.68941e-07
1.85034e-08
5.15449e-08
6.87442e-07
-3.1342e-16
5.14953e-08
6.96726e-07
-1.85034e-08
5.14953e-08
6.96726e-07
-3.60481e-08
5.15449e-08
6.87442e-07
-5.16109e-08
5.16797e-08
6.68941e-07
-6.44524e-08
5.16109e-08
6.41162e-07
5.1455e-08
6.03516e-07
-7.3259e-08
6.44597e-08
3.57271e-08
6.35692e-07
-7.36249e-08
5.16797e-08
3.60481e-08
6.68941e-07
3.61333e-08
3.61333e-08
6.93804e-07
1.85773e-08
3.60748e-08
7.10506e-07
1.01946e-15
3.60424e-08
7.1892e-07
-1.85773e-08
3.60424e-08
7.1892e-07
-3.61333e-08
3.60748e-08
7.10506e-07
-5.16797e-08
3.61333e-08
6.93804e-07
-6.44598e-08
3.60481e-08
6.68941e-07
3.57271e-08
6.35692e-07
-7.36249e-08
6.41942e-08
1.82475e-08
6.56901e-07
-7.33606e-08
5.15449e-08
1.85034e-08
6.87442e-07
3.60748e-08
1.85773e-08
7.10506e-07
1.85646e-08
1.85646e-08
7.26091e-07
2.6951e-15
1.85516e-08
7.33963e-07
-1.85646e-08
1.85516e-08
7.33963e-07
-3.60748e-08
1.85646e-08
7.26091e-07
-5.15449e-08
1.85773e-08
7.10506e-07
-6.41942e-08
1.85034e-08
6.87442e-07
1.82475e-08
6.56901e-07
-7.33606e-08
6.41428e-08
-1.83905e-15
6.67495e-07
-7.3437e-08
5.14953e-08
-1.23383e-15
6.96726e-07
3.60424e-08
1.91725e-15
7.1892e-07
1.85516e-08
3.63969e-15
7.33963e-07
2.69271e-15
3.07865e-15
7.4157e-07
-1.85516e-08
2.12891e-15
7.4157e-07
-3.60424e-08
1.07169e-15
7.33963e-07
-5.14953e-08
2.18086e-15
7.1892e-07
-6.41428e-08
6.09488e-15
6.96726e-07
4.96833e-15
6.67495e-07
-7.3437e-08
6.41428e-08
-1.82475e-08
6.67495e-07
-7.3437e-08
5.14953e-08
-1.85034e-08
6.96726e-07
3.60424e-08
-1.85773e-08
7.1892e-07
1.85516e-08
-1.85646e-08
7.33963e-07
1.46075e-15
-1.85516e-08
7.4157e-07
-1.85516e-08
-1.85516e-08
7.4157e-07
-3.60424e-08
-1.85646e-08
7.33963e-07
-5.14953e-08
-1.85773e-08
7.1892e-07
-6.41428e-08
-1.85034e-08
6.96726e-07
-1.82475e-08
6.67495e-07
-7.3437e-08
6.41942e-08
-3.57271e-08
6.56901e-07
-7.33606e-08
5.15449e-08
-3.60481e-08
6.87442e-07
3.60748e-08
-3.61333e-08
7.10506e-07
1.85646e-08
-3.60748e-08
7.26091e-07
3.94028e-16
-3.60424e-08
7.33963e-07
-1.85646e-08
-3.60424e-08
7.33963e-07
-3.60748e-08
-3.60748e-08
7.26091e-07
-5.15449e-08
-3.61333e-08
7.10506e-07
-6.41942e-08
-3.60481e-08
6.87442e-07
-3.57271e-08
6.56901e-07
-7.33606e-08
6.44597e-08
-5.1455e-08
6.35692e-07
-7.36249e-08
5.16797e-08
-5.16109e-08
6.68941e-07
3.61333e-08
-5.16797e-08
6.93804e-07
1.85773e-08
-5.15449e-08
7.10506e-07
2.01156e-15
-5.14953e-08
7.1892e-07
-1.85773e-08
-5.14953e-08
7.1892e-07
-3.61333e-08
-5.15449e-08
7.10506e-07
-5.16797e-08
-5.16797e-08
6.93804e-07
-6.44597e-08
-5.16109e-08
6.68941e-07
-5.14549e-08
6.35692e-07
-7.36249e-08
6.44524e-08
-6.49653e-08
6.03516e-07
-7.3259e-08
5.16109e-08
-6.44524e-08
6.41162e-07
3.60481e-08
-6.44597e-08
6.68941e-07
1.85034e-08
-6.41942e-08
6.87442e-07
4.96587e-15
-6.41428e-08
6.96726e-07
-1.85034e-08
-6.41428e-08
6.96726e-07
-3.60481e-08
-6.41942e-08
6.87442e-07
-5.16109e-08
-6.44598e-08
6.68941e-07
-6.44524e-08
-6.44524e-08
6.41162e-07
-6.49653e-08
6.03516e-07
-7.3259e-08
6.49653e-08
5.5953e-07
-7.43973e-08
-7.43973e-08
5.1455e-08
6.03516e-07
-7.3259e-08
3.57271e-08
6.35692e-07
-7.36249e-08
1.82475e-08
6.56901e-07
-7.33606e-08
2.34668e-15
6.67495e-07
-7.3437e-08
-1.82475e-08
6.67495e-07
-7.3437e-08
-3.57271e-08
6.56901e-07
-7.33606e-08
-5.1455e-08
6.35692e-07
-7.36249e-08
-6.49653e-08
6.03516e-07
-7.3259e-08
5.5953e-07
-7.43973e-08
-7.43973e-08
3.48664e-08
3.48663e-08
5.63107e-07
-3.66547e-08
-3.66547e-08
2.91334e-08
3.64016e-08
6.10837e-07
-3.79898e-08
2.08547e-08
3.73892e-08
6.45829e-07
-3.92476e-08
1.08313e-08
3.78144e-08
6.68959e-07
-3.98491e-08
3.93948e-16
3.80177e-08
6.80514e-07
-4.02051e-08
-1.08313e-08
3.80177e-08
6.80514e-07
-4.02051e-08
-2.08547e-08
3.78144e-08
6.68959e-07
-3.98491e-08
-2.91334e-08
3.73892e-08
6.45829e-07
-3.92476e-08
-3.48663e-08
3.64016e-08
6.10837e-07
-3.79898e-08
3.48664e-08
5.63107e-07
-3.66547e-08
-3.66547e-08
3.64016e-08
2.91334e-08
6.10837e-07
-3.79898e-08
3.06608e-08
3.06608e-08
6.52644e-07
2.20237e-08
3.14495e-08
6.83517e-07
1.14705e-08
3.17432e-08
7.04067e-07
-1.30736e-15
3.18557e-08
7.14358e-07
-1.14705e-08
3.18557e-08
7.14358e-07
-2.20237e-08
3.17432e-08
7.04067e-07
-3.06608e-08
3.14495e-08
6.83517e-07
-3.64016e-08
3.06608e-08
6.52644e-07
2.91334e-08
6.10837e-07
-3.79898e-08
3.73892e-08
2.08547e-08
6.45829e-07
-3.92476e-08
3.14495e-08
2.20237e-08
6.83517e-07
2.2563e-08
2.2563e-08
7.11577e-07
1.1746e-08
2.27394e-08
7.30327e-07
8.20821e-16
2.2792e-08
7.39729e-07
-1.1746e-08
2.2792e-08
7.39729e-07
-2.2563e-08
2.27394e-08
7.30327e-07
-3.14495e-08
2.2563e-08
7.11577e-07
-3.73892e-08
2.20237e-08
6.83517e-07
2.08547e-08
6.45829e-07
-3.92476e-08
3.78144e-08
1.08313e-08
6.68959e-07
-3.98491e-08
3.17432e-08
1.14705e-08
7.04067e-07
2.27394e-08
1.1746e-08
7.30327e-07
1.18299e-08
1.18299e-08
7.4791e-07
2.39818e-15
1.18507e-08
7.56734e-07
-1.18299e-08
1.18507e-08
7.56734e-07
-2.27394e-08
1.18299e-08
7.4791e-07
-3.17431e-08
1.1746e-08
7.30327e-07
-3.78144e-08
1.14705e-08
7.04067e-07
1.08313e-08
6.68959e-07
-3.98491e-08
3.80177e-08
-2.04422e-15
6.80514e-07
-4.02051e-08
3.18557e-08
-6.59699e-17
7.14358e-07
2.2792e-08
2.88987e-15
7.39729e-07
1.18507e-08
3.94643e-15
7.56734e-07
2.31855e-15
3.21938e-15
7.65271e-07
-1.18507e-08
1.7363e-15
7.65271e-07
-2.2792e-08
5.18181e-16
7.56734e-07
-3.18557e-08
1.59457e-15
7.39729e-07
-3.80177e-08
4.01267e-15
7.14358e-07
3.18088e-15
6.80514e-07
-4.02051e-08
3.80177e-08
-1.08313e-08
6.80514e-07
-4.02051e-08
3.18557e-08
-1.14705e-08
7.14358e-07
2.2792e-08
-1.1746e-08
7.39729e-07
1.18507e-08
-1.18299e-08
7.56734e-07
4.35748e-16
-1.18507e-08
7.65271e-07
-1.18507e-08
-1.18507e-08
7.65271e-07
-2.2792e-08
-1.18299e-08
7.56734e-07
-3.18557e-08
-1.1746e-08
7.39729e-07
-3.80177e-08
-1.14705e-08
7.14358e-07
-1.08313e-08
6.80514e-07
-4.02051e-08
3.78144e-08
-2.08547e-08
6.68959e-07
-3.98491e-08
3.17431e-08
-2.20237e-08
7.04067e-07
2.27394e-08
-2.2563e-08
7.30327e-07
1.18299e-08
-2.27394e-08
7.4791e-07
-6.18858e-16
-2.2792e-08
7.56734e-07
-1.18299e-08
-2.2792e-08
7.56734e-07
-2.27394e-08
-2.27394e-08
7.4791e-07
-3.17431e-08
-2.2563e-08
7.30327e-07
-3.78144e-08
-2.20237e-08
7.04067e-07
-2.08547e-08
6.68959e-07
-3.98491e-08
3.73892e-08
-2.91334e-08
6.45829e-07
-3.92476e-08
3.14495e-08
-3.06608e-08
6.83517e-07
2.2563e-08
-3.14495e-08
7.11577e-07
1.1746e-08
-3.17431e-08
7.30327e-07
7.75661e-16
-3.18557e-08
7.39729e-07
-1.1746e-08
-3.18557e-08
7.39729e-07
-2.2563e-08
-3.17431e-08
7.30327e-07
-3.14495e-08
-3.14495e-08
7.11577e-07
-3.73892e-08
-3.06608e-08
6.83517e-07
-2.91334e-08
6.45829e-07
-3.92476e-08
3.64016e-08
-3.48663e-08
6.10837e-07
-3.79898e-08
3.06608e-08
-3.64016e-08
6.52644e-07
2.20237e-08
-3.73892e-08
6.83517e-07
1.14705e-08
-3.78144e-08
7.04067e-07
3.2416e-15
-3.80177e-08
7.14358e-07
-1.14705e-08
-3.80177e-08
7.14358e-07
-2.20237e-08
-3.78144e-08
7.04067e-07
-3.06608e-08
-3.73892e-08
6.83517e-07
-3.64016e-08
-3.64016e-08
6.52644e-07
-3.48663e-08
6.10837e-07
-3.79898e-08
3.48663e-08
5.63107e-07
-3.66547e-08
-3.66547e-08
2.91334e-08
6.10837e-07
-3.79898e-08
2.08547e-08
6.45829e-07
-3.92476e-08
1.08313e-08
6.68959e-07
-3.98491e-08
2.07754e-15
6.80514e-07
-4.02051e-08
-1.08313e-08
6.80514e-07
-4.02051e-08
-2.08547e-08
6.68959e-07
-3.98491e-08
-2.91334e-08
6.45829e-07
-3.92476e-08
-3.48663e-08
6.10837e-07
-3.79898e-08
5.63107e-07
-3.66547e-08
-3.66547e-08
1.1935e-08
1.19349e-08
5.62427e-07
-1.15947e-08
-1.15947e-08
1.06507e-08
1.36772e-08
6.11606e-07
-1.31617e-08
7.94872e-09
1.48943e-08
6.4794e-07
-1.43033e-08
4.22991e-09
1.56056e-08
6.72081e-07
-1.50086e-08
9.25576e-16
1.59569e-08
6.84168e-07
-1.53808e-08
-4.22991e-09
1.59569e-08
6.84168e-07
-1.53808e-08
-7.94872e-09
1.56056e-08
6.72081e-07
-1.50086e-08
-1.06507e-08
1.48943e-08
6.4794e-07
-1.43033e-08
-1.19349e-08
1.36772e-08
6.11606e-07
-1.31617e-08
1.19349e-08
5.62427e-07
-1.15947e-08
-1.15947e-08
1.36772e-08
1.06507e-08
6.11606e-07
-1.31617e-08
1.22486e-08
1.22486e-08
6.55501e-07
9.16681e-09
1.33235e-08
6.8817e-07
4.88835e-09
1.3942e-08
7.10009e-07
4.09656e-16
1.42361e-08
7.20968e-07
-4.88835e-09
1.42361e-08
7.20968e-07
-9.16681e-09
1.3942e-08
7.10009e-07
-1.22486e-08
1.33235e-08
6.8817e-07
-1.36772e-08
1.22486e-08
6.55501e-07
1.06507e-08
6.11606e-07
-1.31617e-08
1.48943e-08
7.94872e-09
6.4794e-07
-1.43033e-08
1.33235e-08
9.16681e-09
6.8817e-07
9.9561e-09
9.9561e-09
7.18312e-07
5.30577e-09
1.04043e-08
7.38515e-07
1.98797e-15
1.06123e-08
7.48659e-07
-5.30576e-09
1.06123e-08
7.48659e-07
-9.95609e-09
1.04043e-08
7.38515e-07
-1.33235e-08
9.9561e-09
7.18312e-07
-1.48943e-08
9.16681e-09
6.8817e-07
7.94872e-09
6.4794e-07
-1.43033e-08
1.56056e-08
4.22991e-09
6.72081e-07
-1.50086e-08
1.3942e-08
4.88835e-09
7.10009e-07
1.04043e-08
5.30577e-09
7.38515e-07
5.54089e-09
5.54089e-09
7.57637e-07
2.58468e-15
5.64845e-09
7.67239e-07
-5.54089e-09
5.64845e-09
7.67239e-07
-1.04043e-08
5.54089e-09
7.57637e-07
-1.3942e-08
5.30576e-09
7.38515e-07
-1.56056e-08
4.88835e-09
7.10009e-07
4.22991e-09
6.72081e-07
-1.50086e-08
1.59569e-08
-3.28415e-16
6.84168e-07
-1.53808e-08
1.42361e-08
-5.86074e-16
7.20968e-07
1.06123e-08
1.7104e-15
7.48659e-07
5.64845e-09
2.64567e-15
7.67239e-07
2.25456e-15
2.46467e-15
7.76568e-07
-5.64845e-09
1.56163e-15
7.76568e-07
-1.06123e-08
8.71637e-16
7.67239e-07
-1.42361e-08
1.67636e-15
7.48659e-07
-1.59569e-08
3.39078e-15
7.20968e-07
3.23235e-15
6.84168e-07
-1.53808e-08
1.59569e-08
-4.22991e-09
6.84168e-07
-1.53808e-08
1.42361e-08
-4.88835e-09
7.20968e-07
1.06123e-08
-5.30576e-09
7.48659e-07
5.64845e-09
-5.54089e-09
7.67239e-07
1.22524e-15
-5.64845e-09
7.76568e-07
-5.64845e-09
-5.64845e-09
7.76568e-07
-1.06123e-08
-5.54089e-09
7.67239e-07
-1.42361e-08
-5.30576e-09
7.48659e-07
-1.59569e-08
-4.88835e-09
7.20968e-07
-4.2299e-09
6.84168e-07
-1.53808e-08
1.56056e-08
-7.94872e-09
6.72081e-07
-1.50086e-08
1.3942e-08
-9.16681e-09
7.10009e-07
1.04043e-08
-9.95609e-09
7.38515e-07
5.54089e-09
-1.04043e-08
7.57637e-07
8.79397e-16
-1.06123e-08
7.67239e-07
-5.54089e-09
-1.06123e-08
7.67239e-07
-1.04043e-08
-1.04043e-08
7.57637e-07
-1.3942e-08
-9.95609e-09
7.38515e-07
-1.56056e-08
-9.1668e-09
7.10009e-07
-7.94871e-09
6.72081e-07
-1.50086e-08
1.48943e-08
-1.06507e-08
6.4794e-07
-1.43033e-08
1.33235e-08
-1.22486e-08
6.8817e-07
9.9561e-09
-1.33235e-08
7.18312e-07
5.30577e-09
-1.3942e-08
7.38515e-07
1.7428e-15
-1.42361e-08
7.48659e-07
-5.30576e-09
-1.42361e-08
7.48659e-07
-9.95609e-09
-1.3942e-08
7.38515e-07
-1.33235e-08
-1.33235e-08
7.18312e-07
-1.48943e-08
-1.22486e-08
6.8817e-07
-1.06507e-08
6.4794e-07
-1.43033e-08
1.36772e-08
-1.19349e-08
6.11606e-07
-1.31617e-08
1.22486e-08
-1.36772e-08
6.55501e-07
9.16681e-09
-1.48943e-08
6.8817e-07
4.88835e-09
-1.56056e-08
7.10009e-07
2.63875e-15
-1.59569e-08
7.20968e-07
-4.88834e-09
-1.59569e-08
7.20968e-07
-9.1668e-09
-1.56056e-08
7.10009e-07
-1.22486e-08
-1.48943e-08
6.8817e-07
-1.36772e-08
-1.36772e-08
6.55501e-07
-1.19349e-08
6.11606e-07
-1.31617e-08
1.19349e-08
5.62427e-07
-1.15947e-08
-1.15947e-08
1.06507e-08
6.11606e-07
-1.31617e-08
7.94871e-09
6.4794e-07
-1.43033e-08
4.22991e-09
6.72081e-07
-1.50086e-08
1.23017e-15
6.84168e-07
-1.53808e-08
-4.2299e-09
6.84168e-07
-1.53808e-08
-7.94871e-09
6.72081e-07
-1.50086e-08
-1.06507e-08
6.4794e-07
-1.43033e-08
-1.19349e-08
6.11606e-07
-1.31617e-08
5.62427e-07
-1.15947e-08
-1.15947e-08
3.94524e-09
3.94525e-09
5.619e-07
-3.68207e-09
-3.68207e-09
3.62124e-09
4.70294e-09
6.11541e-07
-4.31406e-09
2.75122e-09
5.26399e-09
6.48329e-07
-4.78325e-09
1.47924e-09
5.62104e-09
6.72826e-07
-5.09463e-09
-8.4795e-16
5.80274e-09
6.85104e-07
-5.26041e-09
-1.47925e-09
5.80274e-09
6.85104e-07
-5.2604e-09
-2.75123e-09
5.62104e-09
6.72826e-07
-5.09463e-09
-3.62124e-09
5.26398e-09
6.48329e-07
-4.78325e-09
-3.94524e-09
4.70293e-09
6.11541e-07
-4.31406e-09
3.94524e-09
5.619e-07
-3.68207e-09
-3.68208e-09
4.70294e-09
3.62124e-09
6.11541e-07
-4.31406e-09
4.35683e-09
4.35683e-09
6.56193e-07
3.3352e-09
4.89644e-09
6.89559e-07
1.8023e-09
5.23776e-09
7.11925e-07
5.87229e-17
5.40796e-09
7.23165e-07
-1.8023e-09
5.40796e-09
7.23165e-07
-3.3352e-09
5.23776e-09
7.11925e-07
-4.35683e-09
4.89644e-09
6.89559e-07
-4.70294e-09
4.35683e-09
6.56193e-07
3.62124e-09
6.11541e-07
-4.31407e-09
5.26399e-09
2.75122e-09
6.48329e-07
-4.78325e-09
4.89644e-09
3.3352e-09
6.89559e-07
3.75633e-09
3.75633e-09
7.20592e-07
2.03273e-09
4.02174e-09
7.41454e-07
1.22465e-15
4.15239e-09
7.51947e-07
-2.03273e-09
4.15239e-09
7.51947e-07
-3.75633e-09
4.02174e-09
7.41454e-07
-4.89644e-09
3.75633e-09
7.20592e-07
-5.26399e-09
3.3352e-09
6.89559e-07
2.75122e-09
6.48329e-07
-4.78325e-09
5.62103e-09
1.47924e-09
6.72826e-07
-5.09464e-09
5.23776e-09
1.8023e-09
7.11925e-07
4.02174e-09
2.03273e-09
7.41454e-07
2.17775e-09
2.17775e-09
7.61325e-07
1.84419e-15
2.24865e-09
7.7132e-07
-2.17775e-09
2.24865e-09
7.7132e-07
-4.02173e-09
2.17775e-09
7.61325e-07
-5.23775e-09
2.03273e-09
7.41454e-07
-5.62103e-09
1.8023e-09
7.11925e-07
1.47924e-09
6.72826e-07
-5.09463e-09
5.80274e-09
-1.24115e-15
6.85104e-07
-5.26041e-09
5.40796e-09
1.83384e-15
7.23165e-07
4.15239e-09
2.74088e-15
7.51947e-07
2.24865e-09
2.90585e-15
7.7132e-07
1.62456e-15
2.5266e-15
7.81065e-07
-2.24865e-09
1.87952e-15
7.81065e-07
-4.15239e-09
1.13152e-15
7.7132e-07
-5.40796e-09
5.73393e-16
7.51947e-07
-5.80274e-09
3.49896e-16
7.23165e-07
8.16411e-16
6.85104e-07
-5.26041e-09
5.80274e-09
-1.47925e-09
6.85104e-07
-5.2604e-09
5.40796e-09
-1.8023e-09
7.23165e-07
4.15239e-09
-2.03272e-09
7.51947e-07
2.24865e-09
-2.17775e-09
7.7132e-07
9.88793e-16
-2.24865e-09
7.81065e-07
-2.24865e-09
-2.24865e-09
7.81065e-07
-4.15239e-09
-2.17775e-09
7.7132e-07
-5.40796e-09
-2.03273e-09
7.51947e-07
-5.80274e-09
-1.8023e-09
7.23165e-07
-1.47924e-09
6.85104e-07
-5.26041e-09
5.62103e-09
-2.75123e-09
6.72826e-07
-5.09463e-09
5.23775e-09
-3.3352e-09
7.11925e-07
4.02174e-09
-3.75633e-09
7.41454e-07
2.17775e-09
-4.02173e-09
7.61325e-07
-5.97796e-17
-4.15239e-09
7.7132e-07
-2.17775e-09
-4.15239e-09
7.7132e-07
-4.02174e-09
-4.02174e-09
7.61325e-07
-5.23775e-09
-3.75633e-09
7.41454e-07
-5.62103e-09
-3.3352e-09
7.11925e-07
-2.75122e-09
6.72826e-07
-5.09463e-09
5.26397e-09
-3.62124e-09
6.48329e-07
-4.78324e-09
4.89644e-09
-4.35683e-09
6.89559e-07
3.75633e-09
-4.89644e-09
7.20592e-07
2.03273e-09
-5.23775e-09
7.41454e-07
-5.10564e-16
-5.40796e-09
7.51947e-07
-2.03273e-09
-5.40796e-09
7.51947e-07
-3.75633e-09
-5.23775e-09
7.41454e-07
-4.89644e-09
-4.89644e-09
7.20592e-07
-5.26399e-09
-4.35683e-09
6.89559e-07
-3.62124e-09
6.48329e-07
-4.78324e-09
4.70294e-09
-3.94525e-09
6.11541e-07
-4.31406e-09
4.35683e-09
-4.70294e-09
6.56193e-07
3.3352e-09
-5.26398e-09
6.89559e-07
1.8023e-09
-5.62103e-09
7.11925e-07
-1.75856e-17
-5.80274e-09
7.23165e-07
-1.8023e-09
-5.80274e-09
7.23165e-07
-3.3352e-09
-5.62103e-09
7.11925e-07
-4.35683e-09
-5.26398e-09
6.89559e-07
-4.70294e-09
-4.70294e-09
6.56193e-07
-3.94524e-09
6.11541e-07
-4.31406e-09
3.94525e-09
5.619e-07
-3.68207e-09
-3.68208e-09
3.62124e-09
6.11541e-07
-4.31406e-09
2.75123e-09
6.48329e-07
-4.78324e-09
1.47924e-09
6.72826e-07
-5.09463e-09
1.85662e-15
6.85104e-07
-5.26041e-09
-1.47924e-09
6.85104e-07
-5.26041e-09
-2.75122e-09
6.72826e-07
-5.09464e-09
-3.62123e-09
6.48329e-07
-4.78324e-09
-3.94524e-09
6.11541e-07
-4.31406e-09
5.619e-07
-3.68207e-09
-3.68207e-09
1.36172e-09
1.36172e-09
5.61631e-07
-1.22714e-09
-1.22714e-09
1.27694e-09
1.66227e-09
6.11433e-07
-1.46945e-09
9.83365e-10
1.88773e-09
6.48387e-07
-1.65184e-09
5.32829e-10
2.03518e-09
6.73017e-07
-1.77536e-09
-5.49902e-16
2.11055e-09
6.85367e-07
-1.84048e-09
-5.32829e-10
2.11054e-09
6.85367e-07
-1.84048e-09
-9.83363e-10
2.03518e-09
6.73017e-07
-1.77535e-09
-1.27694e-09
1.88773e-09
6.48387e-07
-1.65184e-09
-1.36172e-09
1.66227e-09
6.11433e-07
-1.46945e-09
1.36172e-09
5.61631e-07
-1.22714e-09
-1.22715e-09
1.66226e-09
1.27694e-09
6.11433e-07
-1.46945e-09
1.57529e-09
1.57529e-09
6.56367e-07
1.22312e-09
1.79905e-09
6.9e-07
6.66331e-10
1.94486e-09
7.12572e-07
-1.85929e-16
2.01851e-09
7.23923e-07
-6.66332e-10
2.01851e-09
7.23923e-07
-1.22313e-09
1.94486e-09
7.12572e-07
-1.57529e-09
1.79904e-09
6.9e-07
-1.66226e-09
1.57529e-09
6.56367e-07
1.27694e-09
6.11433e-07
-1.46945e-09
1.88773e-09
9.83365e-10
6.48387e-07
-1.65184e-09
1.79905e-09
1.22313e-09
6.9e-07
1.40192e-09
1.40192e-09
7.21387e-07
7.65475e-10
1.51844e-09
7.42517e-07
1.54922e-15
1.57684e-09
7.53154e-07
-7.65472e-10
1.57684e-09
7.53154e-07
-1.40192e-09
1.51844e-09
7.42517e-07
-1.79905e-09
1.40192e-09
7.21387e-07
-1.88774e-09
1.22313e-09
6.9e-07
9.83365e-10
6.48387e-07
-1.65184e-09
2.03519e-09
5.32827e-10
6.73017e-07
-1.77536e-09
1.94486e-09
6.66332e-10
7.12572e-07
1.51844e-09
7.65475e-10
7.42517e-07
8.30197e-10
8.30196e-10
7.62701e-07
2.16909e-15
8.62522e-10
7.72865e-07
-8.30192e-10
8.62522e-10
7.72865e-07
-1.51844e-09
8.30195e-10
7.62701e-07
-1.94486e-09
7.65474e-10
7.42517e-07
-2.03518e-09
6.66333e-10
7.12572e-07
5.32827e-10
6.73017e-07
-1.77535e-09
2.11055e-09
-1.75008e-15
6.85367e-07
-1.84048e-09
2.01851e-09
-8.50291e-17
7.23923e-07
1.57684e-09
8.85771e-16
7.53154e-07
8.62523e-10
1.90547e-15
7.72865e-07
2.28214e-15
2.18158e-15
7.8279e-07
-8.62519e-10
2.05657e-15
7.8279e-07
-1.57684e-09
1.72049e-15
7.72865e-07
-2.01851e-09
2.08403e-15
7.53154e-07
-2.11054e-09
1.97772e-15
7.23923e-07
-3.19007e-16
6.85367e-07
-1.84048e-09
2.11054e-09
-5.32831e-10
6.85367e-07
-1.84047e-09
2.01851e-09
-6.66332e-10
7.23923e-07
1.57684e-09
-7.65474e-10
7.53154e-07
8.62522e-10
-8.30192e-10
7.72865e-07
2.2849e-15
-8.62518e-10
7.8279e-07
-8.62518e-10
-8.62518e-10
7.8279e-07
-1.57684e-09
-8.30191e-10
7.72865e-07
-2.0185e-09
-7.6547e-10
7.53154e-07
-2.11054e-09
-6.6633e-10
7.23923e-07
-5.32827e-10
6.85367e-07
-1.84048e-09
2.03518e-09
-9.83369e-10
6.73017e-07
-1.77535e-09
1.94486e-09
-1.22313e-09
7.12572e-07
1.51844e-09
-1.40192e-09
7.42517e-07
8.30196e-10
-1.51844e-09
7.62701e-07
1.9175e-15
-1.57684e-09
7.72865e-07
-8.30192e-10
-1.57684e-09
7.72865e-07
-1.51844e-09
-1.51843e-09
7.62701e-07
-1.94486e-09
-1.40192e-09
7.42517e-07
-2.03518e-09
-1.22312e-09
7.12572e-07
-9.83362e-10
6.73017e-07
-1.77535e-09
1.88773e-09
-1.27694e-09
6.48387e-07
-1.65184e-09
1.79905e-09
-1.57529e-09
6.9e-07
1.40192e-09
-1.79905e-09
7.21387e-07
7.65475e-10
-1.94486e-09
7.42517e-07
2.43837e-15
-2.0185e-09
7.53154e-07
-7.65471e-10
-2.0185e-09
7.53154e-07
-1.40192e-09
-1.94485e-09
7.42517e-07
-1.79904e-09
-1.79904e-09
7.21387e-07
-1.88773e-09
-1.57529e-09
6.9e-07
-1.27694e-09
6.48387e-07
-1.65184e-09
1.66227e-09
-1.36172e-09
6.11433e-07
-1.46945e-09
1.57529e-09
-1.66227e-09
6.56367e-07
1.22313e-09
-1.88774e-09
6.9e-07
6.66334e-10
-2.03518e-09
7.12572e-07
2.65085e-15
-2.11054e-09
7.23923e-07
-6.66327e-10
-2.11054e-09
7.23923e-07
-1.22312e-09
-2.03518e-09
7.12572e-07
-1.57528e-09
-1.88773e-09
6.9e-07
-1.66226e-09
-1.66227e-09
6.56367e-07
-1.36172e-09
6.11433e-07
-1.46944e-09
1.36172e-09
5.61631e-07
-1.22714e-09
-1.22715e-09
1.27694e-09
6.11433e-07
-1.46945e-09
9.83361e-10
6.48387e-07
-1.65184e-09
5.32826e-10
6.73017e-07
-1.77535e-09
-6.74282e-16
6.85367e-07
-1.84048e-09
-5.32826e-10
6.85367e-07
-1.84048e-09
-9.83358e-10
6.73017e-07
-1.77535e-09
-1.27693e-09
6.48387e-07
-1.65184e-09
-1.36171e-09
6.11433e-07
-1.46945e-09
5.61631e-07
-1.22714e-09
-1.22714e-09
4.55177e-10
4.55178e-10
5.61521e-07
-3.99993e-10
-3.99994e-10
4.36438e-10
5.73173e-10
6.11371e-07
-4.9278e-10
3.40925e-10
6.63508e-10
6.48381e-07
-5.623e-10
1.86352e-10
7.24107e-10
6.73058e-07
-6.10923e-10
-9.70024e-16
7.55281e-10
6.85435e-07
-6.36415e-10
-1.86355e-10
7.55282e-10
6.85435e-07
-6.36414e-10
-3.4093e-10
7.24107e-10
6.73058e-07
-6.10921e-10
-4.36441e-10
6.63501e-10
6.48381e-07
-5.62297e-10
-4.55176e-10
5.73166e-10
6.11371e-07
-4.92778e-10
4.55175e-10
5.61521e-07
-3.99992e-10
-3.99992e-10
5.73174e-10
4.36439e-10
6.11371e-07
-4.9278e-10
5.55245e-10
5.55242e-10
6.56403e-07
4.37557e-10
6.47082e-10
6.90134e-07
2.40447e-10
7.0855e-10
7.12785e-07
1.52216e-15
7.39915e-10
7.24179e-07
-2.40444e-10
7.39915e-10
7.24179e-07
-4.37553e-10
7.08549e-10
7.12785e-07
-5.55244e-10
6.4708e-10
6.90134e-07
-5.73174e-10
5.55239e-10
6.56403e-07
4.36434e-10
6.11371e-07
-4.9278e-10
6.63514e-10
3.40923e-10
6.48381e-07
-5.62302e-10
6.47086e-10
4.37555e-10
6.90134e-07
5.12079e-10
5.12077e-10
7.21657e-07
2.82106e-10
5.61983e-10
7.42894e-07
2.02241e-15
5.87308e-10
7.53589e-07
-2.82102e-10
5.87308e-10
7.53589e-07
-5.12075e-10
5.61982e-10
7.42894e-07
-6.47082e-10
5.12076e-10
7.21657e-07
-6.63507e-10
4.37552e-10
6.90134e-07
3.40919e-10
6.48381e-07
-5.62299e-10
7.2411e-10
1.86349e-10
6.73058e-07
-6.10924e-10
7.08551e-10
2.40447e-10
7.12785e-07
5.61983e-10
2.82106e-10
7.42894e-07
3.10058e-10
3.10059e-10
7.63205e-07
1.84857e-15
3.24209e-10
7.73438e-07
-3.10055e-10
3.24209e-10
7.73438e-07
-5.61981e-10
3.10058e-10
7.63205e-07
-7.08548e-10
2.82104e-10
7.42894e-07
-7.24106e-10
2.40444e-10
7.12785e-07
1.86348e-10
6.73058e-07
-6.10923e-10
7.5528e-10
-2.11065e-15
6.85435e-07
-6.36416e-10
7.39914e-10
2.10647e-15
7.24179e-07
5.87307e-10
2.53504e-15
7.53589e-07
3.24208e-10
2.57863e-15
7.73438e-07
1.74653e-15
2.52285e-15
7.83439e-07
-3.24204e-10
2.02804e-15
7.83439e-07
-5.87303e-10
1.21415e-15
7.73438e-07
-7.39911e-10
6.15943e-16
7.53589e-07
-7.55278e-10
-5.3265e-16
7.24179e-07
3.18719e-16
6.85435e-07
-6.36417e-10
7.55281e-10
-1.86355e-10
6.85435e-07
-6.36415e-10
7.39914e-10
-2.40444e-10
7.24179e-07
5.87307e-10
-2.82101e-10
7.53589e-07
3.24207e-10
-3.10053e-10
7.73438e-07
1.14901e-15
-3.24204e-10
7.83439e-07
-3.24205e-10
-3.24204e-10
7.83439e-07
-5.87304e-10
-3.10056e-10
7.73438e-07
-7.39911e-10
-2.82104e-10
7.53589e-07
-7.55278e-10
-2.40445e-10
7.24179e-07
-1.86346e-10
6.85435e-07
-6.36418e-10
7.24105e-10
-3.40928e-10
6.73058e-07
-6.1092e-10
7.08549e-10
-4.37554e-10
7.12785e-07
5.61982e-10
-5.12072e-10
7.42894e-07
3.10057e-10
-5.61978e-10
7.63205e-07
5.79797e-16
-5.87303e-10
7.73438e-07
-3.10056e-10
-5.87304e-10
7.73438e-07
-5.6198e-10
-5.61982e-10
7.63205e-07
-7.08547e-10
-5.12077e-10
7.42894e-07
-7.24105e-10
-4.37553e-10
7.12785e-07
-3.40916e-10
6.73058e-07
-6.10923e-10
6.63501e-10
-4.36439e-10
6.48381e-07
-5.62297e-10
6.4708e-10
-5.55244e-10
6.90134e-07
5.12076e-10
-6.47079e-10
7.21657e-07
2.82104e-10
-7.08547e-10
7.42894e-07
2.60176e-16
-7.3991e-10
7.53589e-07
-2.82103e-10
-7.39912e-10
7.53589e-07
-5.12074e-10
-7.0855e-10
7.42894e-07
-6.4708e-10
-6.47083e-10
7.21657e-07
-6.63508e-10
-5.55239e-10
6.90134e-07
-4.36431e-10
6.48381e-07
-5.62298e-10
5.73168e-10
-4.55176e-10
6.11371e-07
-4.92778e-10
5.55238e-10
-5.73171e-10
6.56403e-07
4.37549e-10
-6.63504e-10
6.90134e-07
2.40441e-10
-7.24105e-10
7.12785e-07
-1.8706e-15
-7.55278e-10
7.24179e-07
-2.40446e-10
-7.5528e-10
7.24179e-07
-4.37555e-10
-7.24109e-10
7.12785e-07
-5.55243e-10
-6.6351e-10
6.90134e-07
-5.73173e-10
-5.73168e-10
6.56403e-07
-4.55171e-10
6.11371e-07
-4.92778e-10
4.55177e-10
5.61521e-07
-3.99993e-10
-3.99993e-10
4.36434e-10
6.11371e-07
-4.92777e-10
3.40917e-10
6.48381e-07
-5.62297e-10
1.86347e-10
6.73058e-07
-6.10923e-10
6.10155e-17
6.85435e-07
-6.36418e-10
-1.8635e-10
6.85435e-07
-6.36417e-10
-3.40923e-10
6.73058e-07
-6.10924e-10
-4.36439e-10
6.48381e-07
-5.62299e-10
-4.55177e-10
6.11371e-07
-4.92776e-10
5.61521e-07
-3.99991e-10
-3.9999e-10
1.52525e-10
1.5252e-10
5.61481e-07
-1.32452e-10
-1.32453e-10
1.4803e-10
1.95664e-10
6.11346e-07
-1.65705e-10
1.16473e-10
2.29299e-10
6.48374e-07
-1.90442e-10
6.3974e-11
2.52406e-10
6.73067e-07
-2.08316e-10
-1.0009e-15
2.64403e-10
6.85452e-07
-2.17679e-10
-6.39755e-11
2.64401e-10
6.85452e-07
-2.17677e-10
-1.16473e-10
2.52402e-10
6.73067e-07
-2.08313e-10
-1.48029e-10
2.29301e-10
6.48374e-07
-1.90442e-10
-1.52527e-10
1.9567e-10
6.11346e-07
-1.65707e-10
1.52528e-10
5.61481e-07
-1.32457e-10
-1.32456e-10
1.95664e-10
1.48023e-10
6.11346e-07
-1.65704e-10
1.92156e-10
1.92154e-10
6.5641e-07
1.52901e-10
2.27261e-10
6.90175e-07
8.45211e-11
2.51356e-10
7.12854e-07
-9.48576e-16
2.63803e-10
7.24264e-07
-8.4523e-11
2.63801e-10
7.24264e-07
-1.52905e-10
2.51353e-10
7.12854e-07
-1.92161e-10
2.27262e-10
6.90175e-07
-1.95671e-10
1.92159e-10
6.5641e-07
1.48028e-10
6.11346e-07
-1.65707e-10
2.29295e-10
1.16468e-10
6.48374e-07
-1.9044e-10
2.27256e-10
1.52901e-10
6.90175e-07
1.81903e-10
1.81907e-10
7.21747e-07
1.00898e-10
2.01846e-10
7.43024e-07
-2.42575e-17
2.12106e-10
7.53742e-07
-1.00899e-10
2.12105e-10
7.53742e-07
-1.81906e-10
2.01846e-10
7.43024e-07
-2.27261e-10
1.81908e-10
7.21747e-07
-2.29301e-10
1.52904e-10
6.90175e-07
1.16469e-10
6.48374e-07
-1.90441e-10
2.524e-10
6.39728e-11
6.73067e-07
-2.08314e-10
2.51351e-10
8.45209e-11
7.12854e-07
2.01844e-10
1.00899e-10
7.43024e-07
1.12187e-10
1.12188e-10
7.63384e-07
7.96006e-16
1.17987e-10
7.73644e-07
-1.12186e-10
1.17987e-10
7.73644e-07
-2.01844e-10
1.12189e-10
7.63384e-07
-2.51353e-10
1.00901e-10
7.43024e-07
-2.52402e-10