/*--------------------------------*- C++ -*----------------------------------*\
| =========                 |                                                 |
| \\      /  F ield         | OpenFOAM: The Open Source CFD Toolbox           |
|  \\    /   O peration     | Version:  2412                                  |
|   \\  /    A nd           | Website:  www.openfoam.com                      |
|    \\/     M anipulation  |                                                 |
\*---------------------------------------------------------------------------*/
FoamFile
{
    version     2.0;
    format      ascii;
    arch        "LSB;label=32;scalar=64";
    class       volVectorField;
    location    "2.4";
    object      U;
}
// * * * * * * * * * * * * * * * * * * * * * * * * * * * * * * * * * * * * * //

dimensions      [0 1 -1 0 0 0 0];

internalField   nonuniform List<vector> 
15000
(
(0.00101677 0.00101677 0.0106346)
(0.000742326 0.000936806 0.0105846)
(0.0005031 0.000915357 0.0105361)
(0.00029507 0.000892856 0.0105005)
(9.67017e-05 0.000883016 0.0104825)
(-9.67017e-05 0.000883016 0.0104825)
(-0.00029507 0.000892856 0.0105005)
(-0.0005031 0.000915357 0.0105361)
(-0.000742326 0.000936806 0.0105846)
(-0.00101677 0.00101677 0.0106346)
(0.000936806 0.000742326 0.0105846)
(0.000695306 0.000695306 0.0105106)
(0.000476567 0.000666379 0.0104495)
(0.000278421 0.000646358 0.0104088)
(9.13686e-05 0.000636985 0.0103889)
(-9.13686e-05 0.000636985 0.0103889)
(-0.000278421 0.000646358 0.0104088)
(-0.000476567 0.000666379 0.0104495)
(-0.000695306 0.000695306 0.0105106)
(-0.000936806 0.000742326 0.0105846)
(0.000915357 0.0005031 0.0105361)
(0.000666379 0.000476567 0.0104495)
(0.000454169 0.000454169 0.0103847)
(0.000263987 0.000438071 0.010343)
(8.65015e-05 0.00043011 0.0103229)
(-8.65015e-05 0.00043011 0.0103229)
(-0.000263987 0.000438071 0.010343)
(-0.000454169 0.000454169 0.0103847)
(-0.000666379 0.000476567 0.0104495)
(-0.000915357 0.0005031 0.0105361)
(0.000892856 0.00029507 0.0105005)
(0.000646358 0.000278421 0.0104088)
(0.000438071 0.000263987 0.010343)
(0.000253573 0.000253573 0.0103016)
(8.29597e-05 0.000248357 0.0102818)
(-8.29597e-05 0.000248357 0.0102818)
(-0.000253573 0.000253573 0.0103016)
(-0.000438071 0.000263987 0.010343)
(-0.000646358 0.000278421 0.0104088)
(-0.000892856 0.00029507 0.0105005)
(0.000883016 9.67017e-05 0.0104825)
(0.000636985 9.13686e-05 0.0103889)
(0.00043011 8.65015e-05 0.0103229)
(0.000248357 8.29597e-05 0.0102818)
(8.11764e-05 8.11764e-05 0.0102621)
(-8.11764e-05 8.11764e-05 0.0102621)
(-0.000248357 8.29597e-05 0.0102818)
(-0.00043011 8.65015e-05 0.0103229)
(-0.000636985 9.13686e-05 0.0103889)
(-0.000883016 9.67017e-05 0.0104825)
(0.000883016 -9.67017e-05 0.0104825)
(0.000636985 -9.13686e-05 0.0103889)
(0.00043011 -8.65014e-05 0.0103229)
(0.000248357 -8.29597e-05 0.0102818)
(8.11764e-05 -8.11764e-05 0.0102621)
(-8.11764e-05 -8.11764e-05 0.0102621)
(-0.000248357 -8.29597e-05 0.0102818)
(-0.00043011 -8.65014e-05 0.0103229)
(-0.000636985 -9.13686e-05 0.0103889)
(-0.000883016 -9.67017e-05 0.0104825)
(0.000892856 -0.00029507 0.0105005)
(0.000646358 -0.000278421 0.0104088)
(0.000438071 -0.000263987 0.010343)
(0.000253573 -0.000253573 0.0103016)
(8.29597e-05 -0.000248357 0.0102818)
(-8.29597e-05 -0.000248357 0.0102818)
(-0.000253573 -0.000253573 0.0103016)
(-0.000438071 -0.000263987 0.010343)
(-0.000646358 -0.000278421 0.0104088)
(-0.000892856 -0.000295071 0.0105005)
(0.000915357 -0.0005031 0.0105361)
(0.000666379 -0.000476567 0.0104495)
(0.000454169 -0.000454169 0.0103847)
(0.000263987 -0.000438071 0.010343)
(8.65015e-05 -0.00043011 0.0103229)
(-8.65014e-05 -0.00043011 0.0103229)
(-0.000263987 -0.000438071 0.010343)
(-0.000454169 -0.000454169 0.0103847)
(-0.000666379 -0.000476567 0.0104495)
(-0.000915357 -0.0005031 0.0105361)
(0.000936806 -0.000742326 0.0105846)
(0.000695306 -0.000695306 0.0105106)
(0.000476567 -0.000666379 0.0104495)
(0.000278421 -0.000646358 0.0104088)
(9.13686e-05 -0.000636985 0.0103889)
(-9.13686e-05 -0.000636985 0.0103889)
(-0.000278421 -0.000646358 0.0104088)
(-0.000476567 -0.000666379 0.0104495)
(-0.000695306 -0.000695306 0.0105106)
(-0.000936806 -0.000742326 0.0105846)
(0.00101677 -0.00101677 0.0106346)
(0.000742326 -0.000936806 0.0105846)
(0.0005031 -0.000915357 0.0105361)
(0.00029507 -0.000892856 0.0105005)
(9.67017e-05 -0.000883016 0.0104825)
(-9.67017e-05 -0.000883016 0.0104825)
(-0.000295071 -0.000892856 0.0105005)
(-0.0005031 -0.000915357 0.0105361)
(-0.000742326 -0.000936806 0.0105846)
(-0.00101677 -0.00101677 0.0106346)
(0.000403379 0.000403379 0.0120749)
(0.000323636 0.000427084 0.0119527)
(0.000233551 0.000451219 0.0118415)
(0.000142281 0.00046487 0.0117619)
(4.7409e-05 0.000472741 0.0117218)
(-4.7409e-05 0.000472741 0.0117218)
(-0.000142281 0.00046487 0.0117619)
(-0.000233551 0.000451219 0.0118415)
(-0.000323637 0.000427084 0.0119527)
(-0.000403379 0.000403379 0.0120749)
(0.000427084 0.000323636 0.0119527)
(0.000345593 0.000345594 0.0117804)
(0.000252773 0.000363613 0.0116422)
(0.000154312 0.000374913 0.01155)
(5.17484e-05 0.000381039 0.0115046)
(-5.17484e-05 0.000381039 0.0115046)
(-0.000154312 0.000374913 0.01155)
(-0.000252773 0.000363613 0.0116422)
(-0.000345593 0.000345593 0.0117804)
(-0.000427084 0.000323636 0.0119527)
(0.000451219 0.000233551 0.0118415)
(0.000363613 0.000252773 0.0116422)
(0.000266762 0.000266762 0.011493)
(0.000162918 0.000275448 0.0113965)
(5.47416e-05 0.000279908 0.0113493)
(-5.47416e-05 0.000279908 0.0113493)
(-0.000162918 0.000275448 0.0113965)
(-0.000266762 0.000266762 0.011493)
(-0.000363613 0.000252773 0.0116422)
(-0.000451219 0.000233551 0.0118415)
(0.00046487 0.000142281 0.0117619)
(0.000374913 0.000154312 0.01155)
(0.000275448 0.000162918 0.0113965)
(0.00016833 0.00016833 0.0112984)
(5.66118e-05 0.000171065 0.0112509)
(-5.66118e-05 0.000171065 0.0112509)
(-0.00016833 0.00016833 0.0112984)
(-0.000275448 0.000162918 0.0113965)
(-0.000374913 0.000154313 0.01155)
(-0.00046487 0.000142281 0.0117619)
(0.000472741 4.7409e-05 0.0117218)
(0.000381039 5.17484e-05 0.0115046)
(0.000279908 5.47416e-05 0.0113493)
(0.000171065 5.66118e-05 0.0112509)
(5.75453e-05 5.75453e-05 0.0112033)
(-5.75453e-05 5.75453e-05 0.0112033)
(-0.000171065 5.66118e-05 0.0112509)
(-0.000279908 5.47416e-05 0.0113493)
(-0.000381039 5.17485e-05 0.0115046)
(-0.000472741 4.74091e-05 0.0117218)
(0.000472741 -4.7409e-05 0.0117218)
(0.000381039 -5.17485e-05 0.0115046)
(0.000279908 -5.47416e-05 0.0113493)
(0.000171065 -5.66118e-05 0.0112509)
(5.75453e-05 -5.75453e-05 0.0112033)
(-5.75453e-05 -5.75453e-05 0.0112033)
(-0.000171065 -5.66118e-05 0.0112509)
(-0.000279908 -5.47416e-05 0.0113493)
(-0.000381039 -5.17484e-05 0.0115046)
(-0.000472741 -4.7409e-05 0.0117218)
(0.00046487 -0.000142281 0.0117619)
(0.000374913 -0.000154312 0.01155)
(0.000275449 -0.000162918 0.0113965)
(0.00016833 -0.00016833 0.0112984)
(5.66118e-05 -0.000171065 0.0112509)
(-5.66118e-05 -0.000171065 0.0112509)
(-0.00016833 -0.00016833 0.0112984)
(-0.000275448 -0.000162918 0.0113965)
(-0.000374913 -0.000154312 0.01155)
(-0.00046487 -0.000142281 0.0117619)
(0.000451219 -0.000233551 0.0118415)
(0.000363613 -0.000252773 0.0116422)
(0.000266762 -0.000266762 0.011493)
(0.000162918 -0.000275448 0.0113965)
(5.47416e-05 -0.000279908 0.0113493)
(-5.47416e-05 -0.000279908 0.0113493)
(-0.000162918 -0.000275448 0.0113965)
(-0.000266762 -0.000266762 0.011493)
(-0.000363613 -0.000252773 0.0116422)
(-0.000451219 -0.000233551 0.0118415)
(0.000427084 -0.000323636 0.0119527)
(0.000345593 -0.000345593 0.0117804)
(0.000252773 -0.000363613 0.0116422)
(0.000154313 -0.000374913 0.01155)
(5.17485e-05 -0.000381039 0.0115046)
(-5.17484e-05 -0.000381039 0.0115046)
(-0.000154312 -0.000374913 0.01155)
(-0.000252773 -0.000363613 0.0116422)
(-0.000345594 -0.000345594 0.0117804)
(-0.000427084 -0.000323637 0.0119527)
(0.000403379 -0.000403379 0.0120749)
(0.000323636 -0.000427084 0.0119527)
(0.000233551 -0.000451219 0.0118415)
(0.000142281 -0.00046487 0.0117619)
(4.7409e-05 -0.000472741 0.0117218)
(-4.7409e-05 -0.000472741 0.0117218)
(-0.000142281 -0.00046487 0.0117619)
(-0.000233551 -0.000451219 0.0118415)
(-0.000323637 -0.000427084 0.0119527)
(-0.000403379 -0.000403379 0.0120749)
(0.000214675 0.000214675 0.0119297)
(0.000180149 0.000236503 0.0119262)
(0.00013597 0.000255624 0.011897)
(8.47703e-05 0.000267384 0.0118701)
(2.85887e-05 0.000273654 0.0118557)
(-2.85887e-05 0.000273654 0.0118557)
(-8.47702e-05 0.000267384 0.0118701)
(-0.00013597 0.000255624 0.011897)
(-0.000180149 0.000236503 0.0119262)
(-0.000214675 0.000214675 0.0119297)
(0.000236503 0.000180149 0.0119262)
(0.000202111 0.000202111 0.0118746)
(0.000153554 0.000218096 0.0118211)
(9.57358e-05 0.000227998 0.0117826)
(3.24181e-05 0.00023304 0.0117631)
(-3.24181e-05 0.00023304 0.0117631)
(-9.57357e-05 0.000227998 0.0117826)
(-0.000153554 0.000218096 0.0118211)
(-0.000202111 0.000202111 0.0118746)
(-0.000236503 0.000180149 0.0119262)
(0.000255624 0.00013597 0.011897)
(0.000218096 0.000153554 0.0118211)
(0.000165586 0.000165586 0.0117565)
(0.000103022 0.000172806 0.0117124)
(3.4893e-05 0.000176327 0.0116904)
(-3.4893e-05 0.000176327 0.0116904)
(-0.000103022 0.000172806 0.0117124)
(-0.000165586 0.000165586 0.0117565)
(-0.000218096 0.000153554 0.0118211)
(-0.000255624 0.00013597 0.011897)
(0.000267384 8.47702e-05 0.0118701)
(0.000227998 9.57358e-05 0.0117826)
(0.000172806 0.000103022 0.0117124)
(0.000107328 0.000107328 0.0116654)
(3.63386e-05 0.000109391 0.0116419)
(-3.63386e-05 0.000109391 0.0116419)
(-0.000107328 0.000107328 0.0116654)
(-0.000172806 0.000103022 0.0117124)
(-0.000227998 9.57358e-05 0.0117826)
(-0.000267384 8.47702e-05 0.0118701)
(0.000273654 2.85887e-05 0.0118557)
(0.00023304 3.24181e-05 0.0117631)
(0.000176327 3.4893e-05 0.0116904)
(0.000109391 3.63386e-05 0.0116419)
(3.70248e-05 3.70248e-05 0.0116177)
(-3.70248e-05 3.70248e-05 0.0116177)
(-0.000109391 3.63386e-05 0.0116419)
(-0.000176327 3.4893e-05 0.0116904)
(-0.00023304 3.24181e-05 0.0117631)
(-0.000273654 2.85887e-05 0.0118557)
(0.000273654 -2.85887e-05 0.0118557)
(0.00023304 -3.24181e-05 0.0117631)
(0.000176327 -3.4893e-05 0.0116904)
(0.000109391 -3.63385e-05 0.0116419)
(3.70248e-05 -3.70248e-05 0.0116177)
(-3.70248e-05 -3.70248e-05 0.0116177)
(-0.000109391 -3.63386e-05 0.0116419)
(-0.000176327 -3.4893e-05 0.0116904)
(-0.00023304 -3.24181e-05 0.0117631)
(-0.000273654 -2.85887e-05 0.0118557)
(0.000267384 -8.47702e-05 0.0118701)
(0.000227998 -9.57357e-05 0.0117826)
(0.000172806 -0.000103022 0.0117124)
(0.000107328 -0.000107328 0.0116654)
(3.63386e-05 -0.000109391 0.0116419)
(-3.63386e-05 -0.000109391 0.0116419)
(-0.000107328 -0.000107328 0.0116654)
(-0.000172806 -0.000103022 0.0117124)
(-0.000227998 -9.57358e-05 0.0117826)
(-0.000267384 -8.47703e-05 0.0118701)
(0.000255624 -0.00013597 0.011897)
(0.000218096 -0.000153554 0.0118211)
(0.000165586 -0.000165586 0.0117565)
(0.000103022 -0.000172806 0.0117124)
(3.4893e-05 -0.000176327 0.0116904)
(-3.4893e-05 -0.000176327 0.0116904)
(-0.000103022 -0.000172806 0.0117124)
(-0.000165586 -0.000165586 0.0117565)
(-0.000218096 -0.000153554 0.0118211)
(-0.000255624 -0.00013597 0.011897)
(0.000236503 -0.000180149 0.0119262)
(0.000202111 -0.000202111 0.0118746)
(0.000153554 -0.000218096 0.0118211)
(9.57358e-05 -0.000227998 0.0117826)
(3.24181e-05 -0.00023304 0.0117631)
(-3.24181e-05 -0.00023304 0.0117631)
(-9.57357e-05 -0.000227998 0.0117826)
(-0.000153554 -0.000218096 0.0118211)
(-0.000202111 -0.000202111 0.0118746)
(-0.000236503 -0.000180149 0.0119262)
(0.000214675 -0.000214675 0.0119297)
(0.000180149 -0.000236503 0.0119262)
(0.00013597 -0.000255624 0.011897)
(8.47702e-05 -0.000267384 0.0118701)
(2.85887e-05 -0.000273654 0.0118557)
(-2.85887e-05 -0.000273654 0.0118557)
(-8.47703e-05 -0.000267384 0.0118701)
(-0.00013597 -0.000255624 0.011897)
(-0.000180149 -0.000236503 0.0119262)
(-0.000214675 -0.000214675 0.0119297)
(7.10905e-05 7.10905e-05 0.0119769)
(6.36894e-05 8.62168e-05 0.0120069)
(5.088e-05 9.85178e-05 0.0120029)
(3.27133e-05 0.000106701 0.0119928)
(1.11938e-05 0.000111007 0.0119866)
(-1.11938e-05 0.000111007 0.0119866)
(-3.27132e-05 0.000106701 0.0119928)
(-5.088e-05 9.85178e-05 0.0120029)
(-6.36894e-05 8.62168e-05 0.0120069)
(-7.10905e-05 7.10905e-05 0.0119769)
(8.62168e-05 6.36894e-05 0.0120069)
(7.88299e-05 7.88299e-05 0.0119956)
(6.30103e-05 9.0325e-05 0.0119715)
(4.05032e-05 9.78985e-05 0.0119522)
(1.3918e-05 0.000101785 0.011942)
(-1.3918e-05 0.000101785 0.011942)
(-4.05031e-05 9.78985e-05 0.0119522)
(-6.30103e-05 9.0325e-05 0.0119715)
(-7.88299e-05 7.88298e-05 0.0119956)
(-8.62168e-05 6.36894e-05 0.0120069)
(9.85178e-05 5.088e-05 0.0120029)
(9.0325e-05 6.30103e-05 0.0119715)
(7.20989e-05 7.20989e-05 0.0119388)
(4.62487e-05 7.80071e-05 0.0119152)
(1.58971e-05 8.09763e-05 0.0119032)
(-1.58971e-05 8.09763e-05 0.0119032)
(-4.62487e-05 7.80071e-05 0.0119152)
(-7.20989e-05 7.20989e-05 0.0119388)
(-9.0325e-05 6.30103e-05 0.0119715)
(-9.85178e-05 5.088e-05 0.0120029)
(0.000106701 3.27133e-05 0.0119928)
(9.78985e-05 4.05032e-05 0.0119522)
(7.80071e-05 4.62487e-05 0.0119152)
(4.99643e-05 4.99643e-05 0.0118894)
(1.71706e-05 5.18166e-05 0.0118762)
(-1.71706e-05 5.18166e-05 0.0118762)
(-4.99643e-05 4.99643e-05 0.0118894)
(-7.80071e-05 4.62487e-05 0.0119152)
(-9.78985e-05 4.05032e-05 0.0119522)
(-0.000106701 3.27133e-05 0.0119928)
(0.000111007 1.11938e-05 0.0119866)
(0.000101785 1.3918e-05 0.011942)
(8.09763e-05 1.58971e-05 0.0119032)
(5.18166e-05 1.71706e-05 0.0118762)
(1.78022e-05 1.78022e-05 0.0118626)
(-1.78022e-05 1.78022e-05 0.0118626)
(-5.18165e-05 1.71706e-05 0.0118762)
(-8.09763e-05 1.58971e-05 0.0119032)
(-0.000101785 1.3918e-05 0.011942)
(-0.000111007 1.11939e-05 0.0119866)
(0.000111007 -1.11938e-05 0.0119866)
(0.000101785 -1.3918e-05 0.011942)
(8.09763e-05 -1.58971e-05 0.0119032)
(5.18166e-05 -1.71706e-05 0.0118762)
(1.78022e-05 -1.78022e-05 0.0118626)
(-1.78022e-05 -1.78022e-05 0.0118626)
(-5.18165e-05 -1.71706e-05 0.0118762)
(-8.09763e-05 -1.58971e-05 0.0119032)
(-0.000101785 -1.3918e-05 0.011942)
(-0.000111007 -1.11938e-05 0.0119866)
(0.000106701 -3.27132e-05 0.0119928)
(9.78985e-05 -4.05031e-05 0.0119522)
(7.80071e-05 -4.62487e-05 0.0119152)
(4.99643e-05 -4.99643e-05 0.0118894)
(1.71706e-05 -5.18165e-05 0.0118762)
(-1.71706e-05 -5.18165e-05 0.0118762)
(-4.99643e-05 -4.99643e-05 0.0118894)
(-7.8007e-05 -4.62487e-05 0.0119152)
(-9.78985e-05 -4.05032e-05 0.0119522)
(-0.000106701 -3.27133e-05 0.0119928)
(9.85178e-05 -5.088e-05 0.0120029)
(9.0325e-05 -6.30103e-05 0.0119715)
(7.20989e-05 -7.20989e-05 0.0119388)
(4.62487e-05 -7.80071e-05 0.0119152)
(1.58971e-05 -8.09763e-05 0.0119032)
(-1.58971e-05 -8.09763e-05 0.0119032)
(-4.62487e-05 -7.8007e-05 0.0119152)
(-7.20989e-05 -7.20989e-05 0.0119388)
(-9.0325e-05 -6.30103e-05 0.0119715)
(-9.85178e-05 -5.08801e-05 0.0120029)
(8.62168e-05 -6.36894e-05 0.0120069)
(7.88299e-05 -7.88298e-05 0.0119956)
(6.30103e-05 -9.03249e-05 0.0119715)
(4.05032e-05 -9.78985e-05 0.0119522)
(1.3918e-05 -0.000101785 0.011942)
(-1.3918e-05 -0.000101785 0.011942)
(-4.05031e-05 -9.78985e-05 0.0119522)
(-6.30103e-05 -9.0325e-05 0.0119715)
(-7.883e-05 -7.883e-05 0.0119956)
(-8.62168e-05 -6.36894e-05 0.0120069)
(7.10905e-05 -7.10905e-05 0.0119769)
(6.36894e-05 -8.62167e-05 0.0120069)
(5.088e-05 -9.85178e-05 0.0120029)
(3.27132e-05 -0.000106701 0.0119928)
(1.11939e-05 -0.000111007 0.0119866)
(-1.11938e-05 -0.000111007 0.0119866)
(-3.27133e-05 -0.000106701 0.0119928)
(-5.08801e-05 -9.85178e-05 0.0120029)
(-6.36894e-05 -8.62168e-05 0.0120069)
(-7.10904e-05 -7.10904e-05 0.0119769)
(2.32961e-05 2.32961e-05 0.0119624)
(2.13639e-05 2.92076e-05 0.0120106)
(1.75337e-05 3.4157e-05 0.0120215)
(1.14184e-05 3.76311e-05 0.0120218)
(3.93228e-06 3.94904e-05 0.0120207)
(-3.93229e-06 3.94904e-05 0.0120207)
(-1.14184e-05 3.76311e-05 0.0120218)
(-1.75337e-05 3.4157e-05 0.0120215)
(-2.13639e-05 2.92077e-05 0.0120106)
(-2.32961e-05 2.32962e-05 0.0119624)
(2.92076e-05 2.13639e-05 0.0120106)
(2.7723e-05 2.7723e-05 0.0120226)
(2.27986e-05 3.27791e-05 0.0120169)
(1.49093e-05 3.62832e-05 0.0120101)
(5.16728e-06 3.81223e-05 0.0120062)
(-5.16728e-06 3.81223e-05 0.0120062)
(-1.49092e-05 3.62832e-05 0.0120101)
(-2.27985e-05 3.27791e-05 0.0120169)
(-2.7723e-05 2.7723e-05 0.0120226)
(-2.92076e-05 2.13639e-05 0.0120106)
(3.4157e-05 1.75337e-05 0.0120215)
(3.27791e-05 2.27986e-05 0.0120169)
(2.70268e-05 2.70268e-05 0.0120048)
(1.76914e-05 2.99393e-05 0.0119951)
(6.14218e-06 3.14468e-05 0.0119899)
(-6.14217e-06 3.14468e-05 0.0119899)
(-1.76913e-05 2.99393e-05 0.0119951)
(-2.70268e-05 2.70268e-05 0.0120048)
(-3.27791e-05 2.27985e-05 0.0120169)
(-3.4157e-05 1.75337e-05 0.0120215)
(3.76311e-05 1.14184e-05 0.0120218)
(3.62832e-05 1.49093e-05 0.0120101)
(2.99393e-05 1.76914e-05 0.0119951)
(1.96049e-05 1.96049e-05 0.0119838)
(6.8112e-06 2.05908e-05 0.0119778)
(-6.81118e-06 2.05908e-05 0.0119778)
(-1.96049e-05 1.96049e-05 0.0119838)
(-2.99392e-05 1.76914e-05 0.0119951)
(-3.62832e-05 1.49092e-05 0.0120101)
(-3.76311e-05 1.14184e-05 0.0120218)
(3.94904e-05 3.93228e-06 0.0120207)
(3.81223e-05 5.16729e-06 0.0120062)
(3.14468e-05 6.14219e-06 0.0119899)
(2.05908e-05 6.81121e-06 0.0119778)
(7.15475e-06 7.15476e-06 0.0119715)
(-7.15473e-06 7.15475e-06 0.0119715)
(-2.05908e-05 6.8112e-06 0.0119778)
(-3.14468e-05 6.14218e-06 0.0119899)
(-3.81222e-05 5.16729e-06 0.0120062)
(-3.94904e-05 3.9323e-06 0.0120207)
(3.94904e-05 -3.93229e-06 0.0120207)
(3.81223e-05 -5.16727e-06 0.0120062)
(3.14468e-05 -6.14216e-06 0.0119899)
(2.05908e-05 -6.81117e-06 0.0119778)
(7.15475e-06 -7.15472e-06 0.0119715)
(-7.15474e-06 -7.15473e-06 0.0119715)
(-2.05908e-05 -6.81119e-06 0.0119778)
(-3.14468e-05 -6.14218e-06 0.0119899)
(-3.81222e-05 -5.16728e-06 0.0120062)
(-3.94904e-05 -3.93229e-06 0.0120207)
(3.76311e-05 -1.14184e-05 0.0120218)
(3.62832e-05 -1.49092e-05 0.0120101)
(2.99393e-05 -1.76913e-05 0.0119951)
(1.96049e-05 -1.96049e-05 0.0119838)
(6.81119e-06 -2.05908e-05 0.0119778)
(-6.81119e-06 -2.05908e-05 0.0119778)
(-1.96049e-05 -1.96049e-05 0.0119838)
(-2.99392e-05 -1.76913e-05 0.0119951)
(-3.62832e-05 -1.49092e-05 0.0120101)
(-3.76311e-05 -1.14185e-05 0.0120218)
(3.41571e-05 -1.75337e-05 0.0120215)
(3.27791e-05 -2.27985e-05 0.0120169)
(2.70268e-05 -2.70268e-05 0.0120048)
(1.76913e-05 -2.99392e-05 0.0119951)
(6.14217e-06 -3.14468e-05 0.0119899)
(-6.14218e-06 -3.14468e-05 0.0119899)
(-1.76913e-05 -2.99392e-05 0.0119951)
(-2.70268e-05 -2.70268e-05 0.0120048)
(-3.27791e-05 -2.27986e-05 0.0120169)
(-3.4157e-05 -1.75338e-05 0.0120215)
(2.92077e-05 -2.13639e-05 0.0120106)
(2.77231e-05 -2.77231e-05 0.0120226)
(2.27985e-05 -3.27791e-05 0.0120169)
(1.49092e-05 -3.62832e-05 0.0120101)
(5.16728e-06 -3.81222e-05 0.0120062)
(-5.16728e-06 -3.81222e-05 0.0120062)
(-1.49092e-05 -3.62832e-05 0.0120101)
(-2.27986e-05 -3.27791e-05 0.0120169)
(-2.77231e-05 -2.77231e-05 0.0120226)
(-2.92076e-05 -2.13639e-05 0.0120106)
(2.32961e-05 -2.32961e-05 0.0119624)
(2.13639e-05 -2.92076e-05 0.0120106)
(1.75337e-05 -3.4157e-05 0.0120215)
(1.14185e-05 -3.76311e-05 0.0120218)
(3.93231e-06 -3.94904e-05 0.0120207)
(-3.93228e-06 -3.94904e-05 0.0120207)
(-1.14185e-05 -3.76311e-05 0.0120218)
(-1.75338e-05 -3.4157e-05 0.0120215)
(-2.13639e-05 -2.92076e-05 0.0120106)
(-2.32961e-05 -2.32961e-05 0.0119624)
(7.97777e-06 7.97776e-06 0.0119509)
(7.45992e-06 1.02066e-05 0.0120045)
(6.25326e-06 1.20865e-05 0.0120203)
(4.1127e-06 1.34316e-05 0.0120243)
(1.42406e-06 1.41525e-05 0.0120252)
(-1.42407e-06 1.41525e-05 0.0120252)
(-4.11268e-06 1.34316e-05 0.0120243)
(-6.25323e-06 1.20865e-05 0.0120203)
(-7.45991e-06 1.02066e-05 0.0120045)
(-7.97775e-06 7.97777e-06 0.0119509)
(1.02066e-05 7.45993e-06 0.0120045)
(9.93982e-06 9.93981e-06 0.0120248)
(8.33223e-06 1.1942e-05 0.0120262)
(5.50948e-06 1.33593e-05 0.0120246)
(1.92009e-06 1.41089e-05 0.0120234)
(-1.92009e-06 1.41089e-05 0.0120234)
(-5.50946e-06 1.33593e-05 0.0120246)
(-8.33221e-06 1.1942e-05 0.0120262)
(-9.9398e-06 9.93981e-06 0.0120248)
(-1.02066e-05 7.45992e-06 0.0120045)
(1.20865e-05 6.25326e-06 0.0120203)
(1.1942e-05 8.33222e-06 0.0120262)
(1.00472e-05 1.00472e-05 0.0120229)
(6.65872e-06 1.12589e-05 0.0120195)
(2.32592e-06 1.1894e-05 0.0120176)
(-2.3259e-06 1.18941e-05 0.0120176)
(-6.6587e-06 1.12589e-05 0.0120195)
(-1.00472e-05 1.00472e-05 0.0120229)
(-1.1942e-05 8.33223e-06 0.0120262)
(-1.20865e-05 6.25324e-06 0.0120203)
(1.34316e-05 4.1127e-06 0.0120243)
(1.33593e-05 5.50948e-06 0.0120246)
(1.12589e-05 6.65872e-06 0.0120195)
(7.47095e-06 7.47094e-06 0.0120152)
(2.61255e-06 7.89573e-06 0.0120129)
(-2.61252e-06 7.89573e-06 0.0120129)
(-7.47093e-06 7.47095e-06 0.0120152)
(-1.12589e-05 6.65872e-06 0.0120195)
(-1.33593e-05 5.50949e-06 0.0120246)
(-1.34316e-05 4.1127e-06 0.0120243)
(1.41525e-05 1.42406e-06 0.0120252)
(1.41089e-05 1.92009e-06 0.0120234)
(1.1894e-05 2.32592e-06 0.0120176)
(7.89574e-06 2.61255e-06 0.0120129)
(2.76216e-06 2.76216e-06 0.0120104)
(-2.76213e-06 2.76216e-06 0.0120104)
(-7.89571e-06 2.61255e-06 0.0120129)
(-1.1894e-05 2.32593e-06 0.0120176)
(-1.41089e-05 1.92011e-06 0.0120234)
(-1.41525e-05 1.42407e-06 0.0120252)
(1.41525e-05 -1.42408e-06 0.0120252)
(1.41089e-05 -1.92009e-06 0.0120234)
(1.1894e-05 -2.32591e-06 0.0120176)
(7.89574e-06 -2.61252e-06 0.0120129)
(2.76216e-06 -2.76213e-06 0.0120104)
(-2.76213e-06 -2.76213e-06 0.0120104)
(-7.89571e-06 -2.61253e-06 0.0120129)
(-1.1894e-05 -2.3259e-06 0.0120176)
(-1.41089e-05 -1.92008e-06 0.0120234)
(-1.41525e-05 -1.42408e-06 0.0120252)
(1.34316e-05 -4.11268e-06 0.0120243)
(1.33593e-05 -5.50946e-06 0.0120246)
(1.12589e-05 -6.6587e-06 0.0120195)
(7.47096e-06 -7.47092e-06 0.0120152)
(2.61255e-06 -7.89571e-06 0.0120129)
(-2.61253e-06 -7.89571e-06 0.0120129)
(-7.47092e-06 -7.47092e-06 0.0120152)
(-1.12588e-05 -6.65869e-06 0.0120195)
(-1.33593e-05 -5.50948e-06 0.0120246)
(-1.34316e-05 -4.11272e-06 0.0120243)
(1.20865e-05 -6.25321e-06 0.0120203)
(1.1942e-05 -8.33219e-06 0.0120262)
(1.00472e-05 -1.00472e-05 0.0120229)
(6.65872e-06 -1.12588e-05 0.0120195)
(2.32593e-06 -1.1894e-05 0.0120176)
(-2.3259e-06 -1.1894e-05 0.0120176)
(-6.65869e-06 -1.12588e-05 0.0120195)
(-1.00472e-05 -1.00472e-05 0.0120229)
(-1.1942e-05 -8.33227e-06 0.0120262)
(-1.20865e-05 -6.25326e-06 0.0120203)
(1.02066e-05 -7.45991e-06 0.0120045)
(9.93981e-06 -9.93978e-06 0.0120248)
(8.33222e-06 -1.19419e-05 0.0120262)
(5.50947e-06 -1.33593e-05 0.0120246)
(1.92011e-06 -1.41089e-05 0.0120234)
(-1.92007e-06 -1.41089e-05 0.0120234)
(-5.50948e-06 -1.33593e-05 0.0120246)
(-8.33228e-06 -1.1942e-05 0.0120262)
(-9.93985e-06 -9.93984e-06 0.0120248)
(-1.02065e-05 -7.45991e-06 0.0120045)
(7.9778e-06 -7.97776e-06 0.0119509)
(7.45993e-06 -1.02066e-05 0.0120045)
(6.25323e-06 -1.20865e-05 0.0120203)
(4.11269e-06 -1.34316e-05 0.0120243)
(1.42407e-06 -1.41525e-05 0.0120252)
(-1.42408e-06 -1.41525e-05 0.0120252)
(-4.11273e-06 -1.34316e-05 0.0120243)
(-6.25327e-06 -1.20865e-05 0.0120203)
(-7.45991e-06 -1.02065e-05 0.0120045)
(-7.97776e-06 -7.97773e-06 0.0119509)
(2.63763e-06 2.63763e-06 0.0119474)
(2.52034e-06 3.48214e-06 0.0120025)
(2.15707e-06 4.19517e-06 0.0120199)
(1.43365e-06 4.7165e-06 0.012025)
(4.99343e-07 4.99617e-06 0.0120265)
(-4.99356e-07 4.99617e-06 0.0120265)
(-1.43366e-06 4.71652e-06 0.012025)
(-2.15706e-06 4.19522e-06 0.0120199)
(-2.52033e-06 3.48221e-06 0.0120025)
(-2.63762e-06 2.63767e-06 0.0119474)
(3.48212e-06 2.52035e-06 0.0120025)
(3.47324e-06 3.47324e-06 0.0120254)
(2.96694e-06 4.25832e-06 0.0120292)
(1.98417e-06 4.8249e-06 0.0120294)
(6.95494e-07 5.1265e-06 0.0120291)
(-6.95476e-07 5.12651e-06 0.0120291)
(-1.98412e-06 4.82492e-06 0.0120294)
(-2.96692e-06 4.25838e-06 0.0120292)
(-3.47328e-06 3.47333e-06 0.0120254)
(-3.48217e-06 2.52037e-06 0.0120025)
(4.19514e-06 2.15707e-06 0.0120199)
(4.2583e-06 2.96694e-06 0.0120292)
(3.65285e-06 3.65284e-06 0.0120291)
(2.45011e-06 4.14747e-06 0.012028)
(8.60921e-07 4.40916e-06 0.0120273)
(-8.60896e-07 4.40916e-06 0.0120273)
(-2.45006e-06 4.14747e-06 0.012028)
(-3.65279e-06 3.65283e-06 0.0120291)
(-4.25834e-06 2.96695e-06 0.0120292)
(-4.19521e-06 2.15708e-06 0.0120199)
(4.71648e-06 1.43366e-06 0.012025)
(4.82489e-06 1.98419e-06 0.0120294)
(4.14747e-06 2.45012e-06 0.012028)
(2.78636e-06 2.78637e-06 0.0120264)
(9.80288e-07 2.964e-06 0.0120255)
(-9.80264e-07 2.964e-06 0.0120255)
(-2.78633e-06 2.78636e-06 0.0120264)
(-4.14743e-06 2.45009e-06 0.012028)
(-4.8249e-06 1.98415e-06 0.0120294)
(-4.71652e-06 1.43368e-06 0.012025)
(4.99616e-06 4.99339e-07 0.0120265)
(5.12649e-06 6.95505e-07 0.0120291)
(4.40915e-06 8.60927e-07 0.0120273)
(2.96399e-06 9.80294e-07 0.0120255)
(1.04326e-06 1.04326e-06 0.0120246)
(-1.04324e-06 1.04326e-06 0.0120246)
(-2.96397e-06 9.80286e-07 0.0120255)
(-4.40913e-06 8.60913e-07 0.0120273)
(-5.12648e-06 6.95485e-07 0.0120291)
(-4.99617e-06 4.99363e-07 0.0120265)
(4.99616e-06 -4.99367e-07 0.0120265)
(5.12651e-06 -6.95478e-07 0.0120291)
(4.40916e-06 -8.60894e-07 0.0120273)
(2.96399e-06 -9.80261e-07 0.0120255)
(1.04326e-06 -1.04323e-06 0.0120246)
(-1.04324e-06 -1.04324e-06 0.0120246)
(-2.96397e-06 -9.80271e-07 0.0120255)
(-4.40913e-06 -8.60906e-07 0.0120273)
(-5.12648e-06 -6.95492e-07 0.0120291)
(-4.99617e-06 -4.99359e-07 0.0120265)
(4.71652e-06 -1.43366e-06 0.012025)
(4.82493e-06 -1.98412e-06 0.0120294)
(4.14747e-06 -2.45006e-06 0.012028)
(2.78635e-06 -2.78633e-06 0.0120264)
(9.80282e-07 -2.96396e-06 0.0120255)
(-9.80275e-07 -2.96397e-06 0.0120255)
(-2.78634e-06 -2.78634e-06 0.0120264)
(-4.14745e-06 -2.45009e-06 0.012028)
(-4.82489e-06 -1.98417e-06 0.0120294)
(-4.71651e-06 -1.43368e-06 0.012025)
(4.19523e-06 -2.15706e-06 0.0120199)
(4.25837e-06 -2.96693e-06 0.0120292)
(3.65282e-06 -3.65282e-06 0.0120291)
(2.45009e-06 -4.14744e-06 0.012028)
(8.60917e-07 -4.40912e-06 0.0120273)
(-8.60913e-07 -4.40913e-06 0.0120273)
(-2.45009e-06 -4.14746e-06 0.012028)
(-3.65283e-06 -3.65284e-06 0.0120291)
(-4.25834e-06 -2.96696e-06 0.0120292)
(-4.19517e-06 -2.15708e-06 0.0120199)
(3.4822e-06 -2.52034e-06 0.0120025)
(3.47331e-06 -3.47331e-06 0.0120254)
(2.96695e-06 -4.25836e-06 0.0120292)
(1.98416e-06 -4.82489e-06 0.0120294)
(6.95487e-07 -5.12648e-06 0.0120291)
(-6.95508e-07 -5.12648e-06 0.0120291)
(-1.98417e-06 -4.82489e-06 0.0120294)
(-2.96696e-06 -4.25832e-06 0.0120292)
(-3.47327e-06 -3.47327e-06 0.0120254)
(-3.48214e-06 -2.52035e-06 0.0120025)
(2.63765e-06 -2.63762e-06 0.0119474)
(2.52035e-06 -3.48215e-06 0.0120025)
(2.1571e-06 -4.19519e-06 0.0120199)
(1.43371e-06 -4.71651e-06 0.012025)
(4.99363e-07 -4.99617e-06 0.0120265)
(-4.99362e-07 -4.99616e-06 0.0120265)
(-1.43367e-06 -4.71649e-06 0.012025)
(-2.15708e-06 -4.19517e-06 0.0120199)
(-2.52037e-06 -3.48214e-06 0.0120025)
(-2.63763e-06 -2.63763e-06 0.0119474)
(8.78211e-07 8.78209e-07 0.0119462)
(8.49463e-07 1.18101e-06 0.0120018)
(7.35411e-07 1.43768e-06 0.0120197)
(4.91401e-07 1.6296e-06 0.0120252)
(1.71707e-07 1.73282e-06 0.012027)
(-1.71719e-07 1.73282e-06 0.012027)
(-4.91378e-07 1.62959e-06 0.0120252)
(-7.35375e-07 1.43764e-06 0.0120197)
(-8.49428e-07 1.18099e-06 0.0120018)
(-8.78191e-07 8.78228e-07 0.0119462)
(1.181e-06 8.49444e-07 0.0120018)
(1.19594e-06 1.19593e-06 0.0120256)
(1.03435e-06 1.4872e-06 0.0120303)
(6.96968e-07 1.70138e-06 0.0120311)
(2.45266e-07 1.81636e-06 0.0120312)
(-2.45278e-07 1.81637e-06 0.0120312)
(-6.96981e-07 1.70139e-06 0.0120311)
(-1.03433e-06 1.48717e-06 0.0120303)
(-1.19589e-06 1.19591e-06 0.0120256)
(-1.18097e-06 8.49442e-07 0.0120018)
(1.43767e-06 7.35403e-07 0.0120197)
(1.4872e-06 1.03435e-06 0.0120303)
(1.29399e-06 1.29399e-06 0.0120313)
(8.75793e-07 1.48502e-06 0.0120311)
(3.09144e-07 1.58714e-06 0.0120308)
(-3.09145e-07 1.58715e-06 0.0120308)
(-8.75802e-07 1.48504e-06 0.0120311)
(-1.29398e-06 1.294e-06 0.0120313)
(-1.48716e-06 1.03435e-06 0.0120303)
(-1.43764e-06 7.35392e-07 0.0120197)
(1.62961e-06 4.91408e-07 0.0120252)
(1.70139e-06 6.96974e-07 0.0120311)
(1.48502e-06 8.7579e-07 0.0120311)
(1.00757e-06 1.00757e-06 0.0120305)
(3.56238e-07 1.07797e-06 0.0120302)
(-3.56229e-07 1.07797e-06 0.0120302)
(-1.00757e-06 1.00759e-06 0.0120305)
(-1.48502e-06 8.75815e-07 0.0120311)
(-1.70136e-06 6.96988e-07 0.0120311)
(-1.62958e-06 4.91405e-07 0.0120252)
(1.73283e-06 1.71713e-07 0.012027)
(1.81636e-06 2.45258e-07 0.0120312)
(1.58714e-06 3.09134e-07 0.0120308)
(1.07797e-06 3.56234e-07 0.0120302)
(3.81375e-07 3.81372e-07 0.0120298)
(-3.81354e-07 3.81377e-07 0.0120298)
(-1.07796e-06 3.56252e-07 0.0120302)
(-1.58713e-06 3.09165e-07 0.0120308)
(-1.81634e-06 2.45282e-07 0.0120312)
(-1.73282e-06 1.71714e-07 0.012027)
(1.73281e-06 -1.71725e-07 0.012027)
(1.81636e-06 -2.4528e-07 0.0120312)
(1.58715e-06 -3.09146e-07 0.0120308)
(1.07798e-06 -3.56227e-07 0.0120302)
(3.81381e-07 -3.81349e-07 0.0120298)
(-3.81349e-07 -3.81347e-07 0.0120298)
(-1.07795e-06 -3.56219e-07 0.0120302)
(-1.58714e-06 -3.09135e-07 0.0120308)
(-1.81636e-06 -2.45277e-07 0.0120312)
(-1.73282e-06 -1.71728e-07 0.012027)
(1.62959e-06 -4.91389e-07 0.0120252)
(1.70139e-06 -6.9697e-07 0.0120311)
(1.48504e-06 -8.75793e-07 0.0120311)
(1.0076e-06 -1.00756e-06 0.0120305)
(3.56254e-07 -1.07795e-06 0.0120302)
(-3.56223e-07 -1.07795e-06 0.0120302)
(-1.00757e-06 -1.00757e-06 0.0120305)
(-1.48503e-06 -8.75797e-07 0.0120311)
(-1.70138e-06 -6.96975e-07 0.0120311)
(-1.6296e-06 -4.91393e-07 0.0120252)
(1.43765e-06 -7.35373e-07 0.0120197)
(1.48718e-06 -1.03433e-06 0.0120303)
(1.294e-06 -1.29398e-06 0.0120313)
(8.75825e-07 -1.485e-06 0.0120311)
(3.09163e-07 -1.58713e-06 0.0120308)
(-3.09143e-07 -1.58713e-06 0.0120308)
(-8.75801e-07 -1.48502e-06 0.0120311)
(-1.29399e-06 -1.29398e-06 0.0120313)
(-1.48718e-06 -1.03434e-06 0.0120303)
(-1.43767e-06 -7.35399e-07 0.0120197)
(1.18099e-06 -8.49413e-07 0.0120018)
(1.19592e-06 -1.19588e-06 0.0120256)
(1.03436e-06 -1.48714e-06 0.0120303)
(6.96995e-07 -1.70135e-06 0.0120311)
(2.45277e-07 -1.81634e-06 0.0120312)
(-2.45279e-07 -1.81635e-06 0.0120312)
(-6.96975e-07 -1.70137e-06 0.0120311)
(-1.03434e-06 -1.48718e-06 0.0120303)
(-1.19593e-06 -1.19593e-06 0.0120256)
(-1.18102e-06 -8.49477e-07 0.0120018)
(8.78219e-07 -8.78174e-07 0.0119462)
(8.49455e-07 -1.18094e-06 0.0120018)
(7.35398e-07 -1.43762e-06 0.0120197)