/*--------------------------------*- C++ -*----------------------------------*\
| =========                 |                                                 |
| \\      /  F ield         | OpenFOAM: The Open Source CFD Toolbox           |
|  \\    /   O peration     | Version:  2412                                  |
|   \\  /    A nd           | Website:  www.openfoam.com                      |
|    \\/     M anipulation  |                                                 |
\*---------------------------------------------------------------------------*/
FoamFile
{
    version     2.0;
    format      ascii;
    arch        "LSB;label=32;scalar=64";
    class       surfaceScalarField;
    location    "1.2";
    object      phi;
}
// * * * * * * * * * * * * * * * * * * * * * * * * * * * * * * * * * * * * * //

dimensions      [0 3 -1 0 0 0 0];

oriented        oriented;

internalField   nonuniform List<scalar> 
43700
(
1.09578e-07
1.09578e-07
5.19741e-07
-1.34439e-07
-1.34439e-07
7.94238e-08
9.4519e-08
5.58879e-07
-1.1386e-07
5.25164e-08
8.69275e-08
5.88387e-07
-1.08977e-07
2.60264e-08
8.1712e-08
6.08111e-07
-1.03621e-07
-6.6858e-15
7.92929e-08
6.18012e-07
-1.0135e-07
-2.60264e-08
7.92929e-08
6.18012e-07
-1.0135e-07
-5.25164e-08
8.1712e-08
6.08111e-07
-1.03621e-07
-7.94239e-08
8.69275e-08
5.88387e-07
-1.08977e-07
-1.09578e-07
9.4519e-08
5.58879e-07
-1.1386e-07
1.09578e-07
5.19741e-07
-1.34439e-07
-1.34439e-07
9.4519e-08
7.94238e-08
5.58879e-07
-1.1386e-07
7.06106e-08
7.06106e-08
5.9366e-07
4.68833e-08
6.45048e-08
6.1984e-07
2.33239e-08
6.0389e-08
6.37379e-07
-1.93402e-16
5.84036e-08
6.46186e-07
-2.33239e-08
5.84036e-08
6.46186e-07
-4.68833e-08
6.0389e-08
6.37379e-07
-7.06106e-08
6.45048e-08
6.1984e-07
-9.4519e-08
7.06106e-08
5.9366e-07
7.94239e-08
5.58879e-07
-1.1386e-07
8.69275e-08
5.25164e-08
5.88387e-07
-1.08977e-07
6.45048e-08
4.68833e-08
6.1984e-07
4.26284e-08
4.26284e-08
6.43626e-07
2.11771e-08
3.97888e-08
6.59614e-07
8.27221e-16
3.84052e-08
6.67653e-07
-2.11771e-08
3.84052e-08
6.67653e-07
-4.26284e-08
3.97888e-08
6.59614e-07
-6.45048e-08
4.26284e-08
6.43626e-07
-8.69275e-08
4.68833e-08
6.1984e-07
5.25164e-08
5.88387e-07
-1.08977e-07
8.1712e-08
2.60264e-08
6.08111e-07
-1.03621e-07
6.0389e-08
2.33238e-08
6.37379e-07
3.97888e-08
2.11771e-08
6.59614e-07
1.97384e-08
1.97384e-08
6.74604e-07
7.30745e-16
1.90338e-08
6.82152e-07
-1.97384e-08
1.90338e-08
6.82152e-07
-3.97888e-08
1.97384e-08
6.74604e-07
-6.0389e-08
2.11771e-08
6.59614e-07
-8.1712e-08
2.33239e-08
6.37379e-07
2.60264e-08
6.08111e-07
-1.03621e-07
7.92929e-08
-4.88222e-15
6.18012e-07
-1.0135e-07
5.84036e-08
-6.45322e-15
6.46186e-07
3.84052e-08
-2.78185e-15
6.67653e-07
1.90338e-08
3.23838e-15
6.82152e-07
2.79752e-15
3.81321e-15
6.8946e-07
-1.90337e-08
3.92982e-15
6.8946e-07
-3.84052e-08
5.02983e-15
6.82152e-07
-5.84036e-08
9.50741e-15
6.67653e-07
-7.92929e-08
9.0993e-15
6.46186e-07
3.02722e-16
6.18012e-07
-1.0135e-07
7.92929e-08
-2.60264e-08
6.18012e-07
-1.0135e-07
5.84036e-08
-2.33239e-08
6.46186e-07
3.84052e-08
-2.11771e-08
6.67653e-07
1.90338e-08
-1.97384e-08
6.82152e-07
2.93211e-15
-1.90337e-08
6.8946e-07
-1.90337e-08
-1.90337e-08
6.8946e-07
-3.84052e-08
-1.97384e-08
6.82152e-07
-5.84036e-08
-2.11771e-08
6.67653e-07
-7.92929e-08
-2.33238e-08
6.46186e-07
-2.60264e-08
6.18012e-07
-1.0135e-07
8.1712e-08
-5.25164e-08
6.08111e-07
-1.03621e-07
6.0389e-08
-4.68833e-08
6.37379e-07
3.97888e-08
-4.26284e-08
6.59614e-07
1.97384e-08
-3.97888e-08
6.74604e-07
3.01991e-15
-3.84052e-08
6.82152e-07
-1.97384e-08
-3.84052e-08
6.82152e-07
-3.97888e-08
-3.97888e-08
6.74604e-07
-6.0389e-08
-4.26284e-08
6.59614e-07
-8.1712e-08
-4.68833e-08
6.37379e-07
-5.25164e-08
6.08111e-07
-1.03621e-07
8.69275e-08
-7.94238e-08
5.88387e-07
-1.08977e-07
6.45048e-08
-7.06106e-08
6.1984e-07
4.26284e-08
-6.45048e-08
6.43626e-07
2.11771e-08
-6.0389e-08
6.59614e-07
6.1264e-15
-5.84036e-08
6.67653e-07
-2.11771e-08
-5.84036e-08
6.67653e-07
-4.26284e-08
-6.0389e-08
6.59614e-07
-6.45048e-08
-6.45048e-08
6.43626e-07
-8.69275e-08
-7.06105e-08
6.1984e-07
-7.94239e-08
5.88387e-07
-1.08977e-07
9.4519e-08
-1.09578e-07
5.58879e-07
-1.1386e-07
7.06106e-08
-9.4519e-08
5.9366e-07
4.68833e-08
-8.69275e-08
6.1984e-07
2.33239e-08
-8.1712e-08
6.37379e-07
7.14662e-15
-7.92929e-08
6.46186e-07
-2.33238e-08
-7.92929e-08
6.46186e-07
-4.68833e-08
-8.1712e-08
6.37379e-07
-7.06106e-08
-8.69275e-08
6.1984e-07
-9.45189e-08
-9.45189e-08
5.9366e-07
-1.09578e-07
5.58879e-07
-1.1386e-07
1.09578e-07
5.19741e-07
-1.34439e-07
-1.34439e-07
7.94238e-08
5.58879e-07
-1.1386e-07
5.25164e-08
5.88387e-07
-1.08977e-07
2.60264e-08
6.08111e-07
-1.03621e-07
2.57386e-15
6.18012e-07
-1.0135e-07
-2.60264e-08
6.18012e-07
-1.0135e-07
-5.25164e-08
6.08111e-07
-1.03621e-07
-7.94238e-08
5.88387e-07
-1.08977e-07
-1.09578e-07
5.58879e-07
-1.1386e-07
5.19741e-07
-1.34439e-07
-1.34439e-07
4.05031e-08
4.05031e-08
5.28572e-07
-4.49186e-08
-4.49186e-08
3.23067e-08
4.02106e-08
5.70292e-07
-4.34272e-08
2.27693e-08
4.07224e-08
6.01987e-07
-4.47847e-08
1.17042e-08
4.07859e-08
6.23288e-07
-4.48975e-08
-4.61871e-15
4.08313e-08
6.34008e-07
-4.5123e-08
-1.17043e-08
4.08313e-08
6.34008e-07
-4.5123e-08
-2.27693e-08
4.07859e-08
6.23288e-07
-4.48975e-08
-3.23067e-08
4.07224e-08
6.01987e-07
-4.47847e-08
-4.05031e-08
4.02106e-08
5.70292e-07
-4.34272e-08
4.05031e-08
5.28572e-07
-4.49187e-08
-4.49186e-08
4.02106e-08
3.23067e-08
5.70292e-07
-4.34272e-08
3.30116e-08
3.30116e-08
6.08058e-07
2.34346e-08
3.34133e-08
6.36727e-07
1.21356e-08
3.34626e-08
6.56001e-07
-1.28772e-16
3.34642e-08
6.65688e-07
-1.21356e-08
3.34642e-08
6.65688e-07
-2.34345e-08
3.34626e-08
6.56001e-07
-3.30116e-08
3.34133e-08
6.36727e-07
-4.02105e-08
3.30116e-08
6.08058e-07
3.23067e-08
5.70292e-07
-4.34272e-08
4.07224e-08
2.27693e-08
6.01987e-07
-4.47847e-08
3.34133e-08
2.34345e-08
6.36727e-07
2.36743e-08
2.36743e-08
6.63104e-07
1.22505e-08
2.36806e-08
6.8082e-07
2.23596e-15
2.36573e-08
6.89711e-07
-1.22505e-08
2.36573e-08
6.89711e-07
-2.36743e-08
2.36806e-08
6.8082e-07
-3.34133e-08
2.36743e-08
6.63104e-07
-4.07224e-08
2.34346e-08
6.36727e-07
2.27693e-08
6.01987e-07
-4.47847e-08
4.07859e-08
1.17043e-08
6.23288e-07
-4.48975e-08
3.34626e-08
1.21356e-08
6.56001e-07
2.36806e-08
1.22505e-08
6.8082e-07
1.22471e-08
1.22471e-08
6.9747e-07
1.96103e-15
1.22291e-08
7.05827e-07
-1.22471e-08
1.22291e-08
7.05827e-07
-2.36806e-08
1.22471e-08
6.9747e-07
-3.34626e-08
1.22505e-08
6.8082e-07
-4.07859e-08
1.21356e-08
6.56001e-07
1.17043e-08
6.23288e-07
-4.48975e-08
4.08313e-08
-3.8181e-15
6.34008e-07
-4.5123e-08
3.34642e-08
-4.89605e-15
6.65688e-07
2.36573e-08
-9.3573e-16
6.89711e-07
1.22291e-08
1.95286e-15
7.05827e-07
2.96349e-15
3.30922e-15
7.13918e-07
-1.22291e-08
2.98147e-15
7.13918e-07
-2.36572e-08
3.50463e-15
7.05827e-07
-3.34642e-08
9.99605e-15
6.89711e-07
-4.08313e-08
7.86917e-15
6.65688e-07
-1.33781e-15
6.34008e-07
-4.5123e-08
4.08313e-08
-1.17043e-08
6.34008e-07
-4.5123e-08
3.34642e-08
-1.21356e-08
6.65688e-07
2.36573e-08
-1.22505e-08
6.89711e-07
1.22291e-08
-1.22471e-08
7.05827e-07
2.81472e-15
-1.22291e-08
7.13918e-07
-1.22291e-08
-1.22291e-08
7.13918e-07
-2.36572e-08
-1.22471e-08
7.05827e-07
-3.34642e-08
-1.22505e-08
6.89711e-07
-4.08313e-08
-1.21356e-08
6.65688e-07
-1.17043e-08
6.34008e-07
-4.5123e-08
4.07859e-08
-2.27693e-08
6.23288e-07
-4.48975e-08
3.34626e-08
-2.34346e-08
6.56001e-07
2.36806e-08
-2.36743e-08
6.8082e-07
1.22471e-08
-2.36806e-08
6.9747e-07
3.76691e-15
-2.36572e-08
7.05827e-07
-1.22471e-08
-2.36572e-08
7.05827e-07
-2.36806e-08
-2.36806e-08
6.9747e-07
-3.34626e-08
-2.36743e-08
6.8082e-07
-4.07859e-08
-2.34345e-08
6.56001e-07
-2.27693e-08
6.23288e-07
-4.48975e-08
4.07224e-08
-3.23067e-08
6.01987e-07
-4.47847e-08
3.34133e-08
-3.30116e-08
6.36727e-07
2.36743e-08
-3.34133e-08
6.63104e-07
1.22505e-08
-3.34626e-08
6.8082e-07
5.06859e-15
-3.34642e-08
6.89711e-07
-1.22505e-08
-3.34642e-08
6.89711e-07
-2.36743e-08
-3.34626e-08
6.8082e-07
-3.34133e-08
-3.34133e-08
6.63104e-07
-4.07224e-08
-3.30116e-08
6.36727e-07
-3.23067e-08
6.01987e-07
-4.47847e-08
4.02106e-08
-4.05031e-08
5.70292e-07
-4.34272e-08
3.30116e-08
-4.02106e-08
6.08058e-07
2.34346e-08
-4.07224e-08
6.36727e-07
1.21356e-08
-4.07859e-08
6.56001e-07
6.06395e-15
-4.08313e-08
6.65688e-07
-1.21356e-08
-4.08313e-08
6.65688e-07
-2.34345e-08
-4.07859e-08
6.56001e-07
-3.30116e-08
-4.07224e-08
6.36727e-07
-4.02105e-08
-4.02105e-08
6.08058e-07
-4.05031e-08
5.70292e-07
-4.34272e-08
4.05031e-08
5.28572e-07
-4.49186e-08
-4.49186e-08
3.23067e-08
5.70292e-07
-4.34272e-08
2.27693e-08
6.01987e-07
-4.47847e-08
1.17043e-08
6.23288e-07
-4.48975e-08
-1.23626e-15
6.34008e-07
-4.5123e-08
-1.17043e-08
6.34008e-07
-4.5123e-08
-2.27693e-08
6.23288e-07
-4.48975e-08
-3.23067e-08
6.01987e-07
-4.47847e-08
-4.05031e-08
5.70292e-07
-4.34272e-08
5.28572e-07
-4.49187e-08
-4.49187e-08
1.79111e-08
1.79111e-08
5.30527e-07
-1.88888e-08
-1.88888e-08
1.46674e-08
1.81948e-08
5.7405e-07
-1.8709e-08
1.04674e-08
1.86463e-08
6.07044e-07
-1.95038e-08
5.41786e-09
1.88495e-08
6.29226e-07
-1.97379e-08
1.13412e-15
1.89546e-08
6.40382e-07
-1.99109e-08
-5.41786e-09
1.89546e-08
6.40382e-07
-1.99109e-08
-1.04674e-08
1.88495e-08
6.29226e-07
-1.97379e-08
-1.46674e-08
1.86463e-08
6.07044e-07
-1.95038e-08
-1.79111e-08
1.81948e-08
5.7405e-07
-1.8709e-08
1.79111e-08
5.30527e-07
-1.88888e-08
-1.88888e-08
1.81949e-08
1.46674e-08
5.7405e-07
-1.8709e-08
1.53459e-08
1.53459e-08
6.13756e-07
1.10612e-08
1.57764e-08
6.43881e-07
5.77982e-09
1.59885e-08
6.64144e-07
1.71609e-15
1.60913e-08
6.74331e-07
-5.77982e-09
1.60913e-08
6.74331e-07
-1.10612e-08
1.59885e-08
6.64144e-07
-1.53459e-08
1.57764e-08
6.43881e-07
-1.81948e-08
1.53459e-08
6.13756e-07
1.46674e-08
5.7405e-07
-1.8709e-08
1.86463e-08
1.04674e-08
6.07044e-07
-1.95038e-08
1.57764e-08
1.10612e-08
6.43881e-07
1.14056e-08
1.14056e-08
6.71846e-07
5.97456e-09
1.15846e-08
6.90655e-07
3.53953e-15
1.16666e-08
7.0011e-07
-5.97456e-09
1.16666e-08
7.0011e-07
-1.14056e-08
1.15846e-08
6.90655e-07
-1.57764e-08
1.14056e-08
6.71846e-07
-1.86463e-08
1.10612e-08
6.43881e-07
1.04674e-08
6.07044e-07
-1.95038e-08
1.88495e-08
5.41787e-09
6.29226e-07
-1.97379e-08
1.59885e-08
5.77982e-09
6.64144e-07
1.15846e-08
5.97456e-09
6.90655e-07
6.0769e-09
6.0769e-09
7.08486e-07
3.31779e-15
6.12227e-09
7.17448e-07
-6.07689e-09
6.12227e-09
7.17448e-07
-1.15846e-08
6.0769e-09
7.08486e-07
-1.59885e-08
5.97456e-09
6.90655e-07
-1.88495e-08
5.77982e-09
6.64144e-07
5.41786e-09
6.29226e-07
-1.97379e-08
1.89546e-08
3.96713e-15
6.40382e-07
-1.99109e-08
1.60913e-08
-1.45864e-15
6.74331e-07
1.16666e-08
2.84265e-15
7.0011e-07
6.12227e-09
4.70594e-15
7.17448e-07
3.39809e-15
4.50834e-15
7.26163e-07
-6.12226e-09
3.44713e-15
7.26163e-07
-1.16666e-08
2.85567e-15
7.17448e-07
-1.60913e-08
5.99578e-15
7.0011e-07
-1.89546e-08
4.88626e-15
6.74331e-07
1.46773e-15
6.40382e-07
-1.99109e-08
1.89546e-08
-5.41785e-09
6.40382e-07
-1.99109e-08
1.60913e-08
-5.77982e-09
6.74331e-07
1.16666e-08
-5.97455e-09
7.0011e-07
6.12227e-09
-6.07689e-09
7.17448e-07
1.73002e-15
-6.12226e-09
7.26163e-07
-6.12227e-09
-6.12226e-09
7.26163e-07
-1.16666e-08
-6.07689e-09
7.17448e-07
-1.60913e-08
-5.97455e-09
7.0011e-07
-1.89546e-08
-5.77981e-09
6.74331e-07
-5.41785e-09
6.40382e-07
-1.99109e-08
1.88495e-08
-1.04674e-08
6.29226e-07
-1.97379e-08
1.59885e-08
-1.10612e-08
6.64144e-07
1.15846e-08
-1.14056e-08
6.90655e-07
6.0769e-09
-1.15846e-08
7.08486e-07
2.23072e-15
-1.16666e-08
7.17448e-07
-6.07689e-09
-1.16666e-08
7.17448e-07
-1.15846e-08
-1.15846e-08
7.08486e-07
-1.59885e-08
-1.14055e-08
6.90655e-07
-1.88495e-08
-1.10611e-08
6.64144e-07
-1.04674e-08
6.29226e-07
-1.97379e-08
1.86463e-08
-1.46674e-08
6.07044e-07
-1.95038e-08
1.57763e-08
-1.53459e-08
6.43881e-07
1.14056e-08
-1.57764e-08
6.71846e-07
5.97456e-09
-1.59885e-08
6.90655e-07
4.8756e-15
-1.60913e-08
7.0011e-07
-5.97455e-09
-1.60913e-08
7.0011e-07
-1.14055e-08
-1.59885e-08
6.90655e-07
-1.57763e-08
-1.57764e-08
6.71846e-07
-1.86463e-08
-1.53459e-08
6.43881e-07
-1.46674e-08
6.07044e-07
-1.95038e-08
1.81948e-08
-1.79111e-08
5.7405e-07
-1.8709e-08
1.53459e-08
-1.81948e-08
6.13756e-07
1.10612e-08
-1.86463e-08
6.43881e-07
5.77982e-09
-1.88495e-08
6.64144e-07
1.34816e-15
-1.89546e-08
6.74331e-07
-5.77981e-09
-1.89546e-08
6.74331e-07
-1.10611e-08
-1.88495e-08
6.64144e-07
-1.53459e-08
-1.86463e-08
6.43881e-07
-1.81948e-08
-1.81948e-08
6.13756e-07
-1.79111e-08
5.7405e-07
-1.8709e-08
1.79111e-08
5.30527e-07
-1.88888e-08
-1.88888e-08
1.46674e-08
5.7405e-07
-1.8709e-08
1.04674e-08
6.07044e-07
-1.95038e-08
5.41786e-09
6.29226e-07
-1.97379e-08
-9.36781e-16
6.40382e-07
-1.99109e-08
-5.41786e-09
6.40382e-07
-1.99109e-08
-1.04674e-08
6.29226e-07
-1.97379e-08
-1.46674e-08
6.07044e-07
-1.95038e-08
-1.79112e-08
5.7405e-07
-1.8709e-08
5.30527e-07
-1.88888e-08
-1.88888e-08
6.49511e-09
6.4951e-09
5.30523e-07
-6.49271e-09
-6.49271e-09
5.56009e-09
7.00109e-09
5.74781e-07
-6.79752e-09
4.08326e-09
7.45915e-09
6.08395e-07
-7.33346e-09
2.14983e-09
7.7186e-09
6.3103e-07
-7.58947e-09
2.71356e-15
7.84583e-09
6.42421e-07
-7.7347e-09
-2.14982e-09
7.84583e-09
6.42421e-07
-7.73469e-09
-4.08325e-09
7.71859e-09
6.3103e-07
-7.58946e-09
-5.56007e-09
7.45914e-09
6.08395e-07
-7.33346e-09
-6.4951e-09
7.00111e-09
5.74781e-07
-6.79753e-09
6.49512e-09
5.30523e-07
-6.49271e-09
-6.49271e-09
7.0011e-09
5.56008e-09
5.74781e-07
-6.79753e-09
6.1621e-09
6.1621e-09
6.15434e-07
4.5688e-09
6.58103e-09
6.46353e-07
2.42572e-09
6.82235e-09
6.67183e-07
2.6825e-16
6.93818e-09
6.77665e-07
-2.42572e-09
6.93817e-09
6.77665e-07
-4.5688e-09
6.82235e-09
6.67183e-07
-6.16211e-09
6.58102e-09
6.46353e-07
-7.0011e-09
6.1621e-09
6.15434e-07
5.56009e-09
5.74781e-07
-6.79752e-09
7.45915e-09
4.08326e-09
6.08395e-07
-7.33346e-09
6.58102e-09
4.5688e-09
6.46353e-07
4.88558e-09
4.88558e-09
6.75236e-07
2.59652e-09
5.06983e-09
6.94696e-07
1.73106e-15
5.15695e-09
7.04488e-07
-2.59651e-09
5.15695e-09
7.04488e-07
-4.88558e-09
5.06983e-09
6.94696e-07
-6.58103e-09
4.88558e-09
6.75236e-07
-7.45916e-09
4.5688e-09
6.46353e-07
4.08326e-09
6.08395e-07
-7.33346e-09
7.7186e-09
2.14982e-09
6.3103e-07
-7.58947e-09
6.82235e-09
2.42571e-09
6.67183e-07
5.06983e-09
2.59652e-09
6.94696e-07
2.69656e-09
2.69656e-09
7.13232e-07
2.47427e-15
2.74352e-09
7.22558e-07
-2.69656e-09
2.74352e-09
7.22558e-07
-5.06982e-09
2.69656e-09
7.13232e-07
-6.82235e-09
2.59652e-09
6.94696e-07
-7.71859e-09
2.42572e-09
6.67183e-07
2.14982e-09
6.3103e-07
-7.58946e-09
7.84583e-09
7.6167e-16
6.42421e-07
-7.7347e-09
6.93817e-09
-6.10142e-16
6.77665e-07
5.15695e-09
1.67535e-15
7.04488e-07
2.74352e-09
2.53059e-15
7.22558e-07
3.5671e-15
4.15096e-15
7.3165e-07
-2.74351e-09
3.55141e-15
7.3165e-07
-5.15694e-09
3.67661e-15
7.22558e-07
-6.93817e-09
5.84221e-15
7.04488e-07
-7.84583e-09
3.74922e-15
6.77665e-07
9.90013e-16
6.42421e-07
-7.7347e-09
7.84583e-09
-2.14983e-09
6.42421e-07
-7.73469e-09
6.93817e-09
-2.42572e-09
6.77665e-07
5.15695e-09
-2.59651e-09
7.04488e-07
2.74352e-09
-2.69656e-09
7.22558e-07
3.15074e-15
-2.74351e-09
7.3165e-07
-2.74351e-09
-2.74351e-09
7.3165e-07
-5.15694e-09
-2.69656e-09
7.22558e-07
-6.93817e-09
-2.59651e-09
7.04488e-07
-7.84583e-09
-2.42571e-09
6.77665e-07
-2.14982e-09
6.42421e-07
-7.7347e-09
7.71859e-09
-4.08325e-09
6.3103e-07
-7.58946e-09
6.82234e-09
-4.5688e-09
6.67183e-07
5.06983e-09
-4.88558e-09
6.94696e-07
2.69656e-09
-5.06983e-09
7.13232e-07
3.30966e-15
-5.15695e-09
7.22558e-07
-2.69656e-09
-5.15695e-09
7.22558e-07
-5.06982e-09
-5.06982e-09
7.13232e-07
-6.82234e-09
-4.88557e-09
6.94696e-07
-7.7186e-09
-4.56879e-09
6.67183e-07
-4.08326e-09
6.3103e-07
-7.58946e-09
7.45916e-09
-5.56008e-09
6.08395e-07
-7.33346e-09
6.58102e-09
-6.1621e-09
6.46353e-07
4.88558e-09
-6.58103e-09
6.75236e-07
2.59652e-09
-6.82235e-09
6.94696e-07
4.75722e-15
-6.93817e-09
7.04488e-07
-2.59651e-09
-6.93818e-09
7.04488e-07
-4.88557e-09
-6.82235e-09
6.94696e-07
-6.58102e-09
-6.58101e-09
6.75236e-07
-7.45915e-09
-6.16209e-09
6.46353e-07
-5.5601e-09
6.08395e-07
-7.33345e-09
7.00111e-09
-6.49511e-09
5.74781e-07
-6.79753e-09
6.16211e-09
-7.0011e-09
6.15434e-07
4.56881e-09
-7.45916e-09
6.46353e-07
2.42572e-09
-7.7186e-09
6.67183e-07
2.53022e-15
-7.84583e-09
6.77665e-07
-2.42571e-09
-7.84583e-09
6.77665e-07
-4.5688e-09
-7.7186e-09
6.67183e-07
-6.1621e-09
-7.45914e-09
6.46353e-07
-7.0011e-09
-7.00109e-09
6.15434e-07
-6.49512e-09
5.74781e-07
-6.79752e-09
6.49511e-09
5.30523e-07
-6.49271e-09
-6.49271e-09
5.56008e-09
5.74781e-07
-6.79752e-09
4.08325e-09
6.08395e-07
-7.33346e-09
2.14983e-09
6.3103e-07
-7.58947e-09
4.6038e-16
6.42421e-07
-7.7347e-09
-2.14982e-09
6.42421e-07
-7.7347e-09
-4.08326e-09
6.3103e-07
-7.58946e-09
-5.56008e-09
6.08395e-07
-7.33345e-09
-6.49511e-09
5.74781e-07
-6.79751e-09
5.30523e-07
-6.49272e-09
-6.49272e-09
2.22773e-09
2.22773e-09
5.30392e-07
-2.16253e-09
-2.16253e-09
1.9562e-09
2.49768e-09
5.74892e-07
-2.3367e-09
1.46137e-09
2.7375e-09
6.08728e-07
-2.57575e-09
7.77664e-10
2.886e-09
6.31535e-07
-2.70763e-09
-2.02214e-16
2.96075e-09
6.43018e-07
-2.78024e-09
-7.77665e-10
2.96075e-09
6.43018e-07
-2.78024e-09
-1.46137e-09
2.886e-09
6.31535e-07
-2.70763e-09
-1.95619e-09
2.73747e-09
6.08728e-07
-2.57575e-09
-2.22771e-09
2.49768e-09
5.74892e-07
-2.3367e-09
2.22773e-09
5.30392e-07
-2.16252e-09
-2.16253e-09
2.4977e-09
1.95619e-09
5.74892e-07
-2.33671e-09
2.26383e-09
2.26382e-09
6.15901e-07
1.71331e-09
2.49487e-09
6.47146e-07
9.2079e-10
2.64001e-09
6.68221e-07
7.01609e-16
2.71212e-09
6.78834e-07
-9.20789e-10
2.71212e-09
6.78834e-07
-1.7133e-09
2.64e-09
6.68221e-07
-2.26382e-09
2.49485e-09
6.47146e-07
-2.49768e-09
2.26381e-09
6.15901e-07
1.95619e-09
5.74892e-07
-2.33669e-09
2.7375e-09
1.46136e-09
6.08728e-07
-2.57576e-09
2.49487e-09
1.7133e-09
6.47146e-07
1.89361e-09
1.89361e-09
6.76439e-07
1.01944e-09
2.00767e-09
6.96203e-07
3.17074e-15
2.06379e-09
7.06156e-07
-1.01943e-09
2.06379e-09
7.06156e-07
-1.8936e-09
2.00767e-09
6.96203e-07
-2.49487e-09
1.8936e-09
6.76439e-07
-2.7375e-09
1.7133e-09
6.47146e-07
1.46135e-09
6.08728e-07
-2.57576e-09
2.886e-09
7.77666e-10
6.31535e-07
-2.70764e-09
2.64e-09
9.20788e-10
6.68221e-07
2.00767e-09
1.01944e-09
6.96203e-07
1.08217e-09
1.08218e-09
7.15083e-07
3.60984e-15
1.11289e-09
7.24591e-07
-1.08217e-09
1.11289e-09
7.24591e-07
-2.00766e-09
1.08217e-09
7.15083e-07
-2.64e-09
1.01943e-09
6.96203e-07
-2.886e-09
9.20787e-10
6.68221e-07
7.77659e-10
6.31535e-07
-2.70763e-09
2.96075e-09
-2.85534e-16
6.43018e-07
-2.78024e-09
2.71212e-09
2.75932e-15
6.78834e-07
2.06379e-09
4.71754e-15
7.06156e-07
1.11289e-09
4.56436e-15
7.24591e-07
3.18981e-15
4.81055e-15
7.33876e-07
-1.11288e-09
3.51293e-15
7.33876e-07
-2.06378e-09
2.37331e-15
7.24591e-07
-2.71211e-09
3.37582e-15
7.06156e-07
-2.96075e-09
1.49211e-15
6.78834e-07
6.55983e-16
6.43018e-07
-2.78024e-09
2.96075e-09
-7.77665e-10
6.43018e-07
-2.78024e-09
2.71212e-09
-9.20783e-10
6.78834e-07
2.06378e-09
-1.01943e-09
7.06156e-07
1.11289e-09
-1.08217e-09
7.24591e-07
2.04923e-15
-1.11288e-09
7.33876e-07
-1.11289e-09
-1.11289e-09
7.33876e-07
-2.06378e-09
-1.08217e-09
7.24591e-07
-2.71212e-09
-1.01943e-09
7.06156e-07
-2.96075e-09
-9.20782e-10
6.78834e-07
-7.77659e-10
6.43018e-07
-2.78024e-09
2.886e-09
-1.46136e-09
6.31535e-07
-2.70763e-09
2.64e-09
-1.71329e-09
6.68221e-07
2.00766e-09
-1.8936e-09
6.96203e-07
1.08217e-09
-2.00767e-09
7.15083e-07
1.34786e-15
-2.06378e-09
7.24591e-07
-1.08217e-09
-2.06378e-09
7.24591e-07
-2.00766e-09
-2.00767e-09
7.15083e-07
-2.64e-09
-1.8936e-09
6.96203e-07
-2.886e-09
-1.71329e-09
6.68221e-07
-1.46136e-09
6.31535e-07
-2.70763e-09
2.73747e-09
-1.95618e-09
6.08728e-07
-2.57575e-09
2.49485e-09
-2.26381e-09
6.47146e-07
1.8936e-09
-2.49486e-09
6.76439e-07
1.01943e-09
-2.64e-09
6.96203e-07
2.62007e-15
-2.71212e-09
7.06156e-07
-1.01943e-09
-2.71212e-09
7.06156e-07
-1.89359e-09
-2.64e-09
6.96203e-07
-2.49486e-09
-2.49486e-09
6.76439e-07
-2.73748e-09
-2.26381e-09
6.47146e-07
-1.95619e-09
6.08728e-07
-2.57574e-09
2.49769e-09
-2.22772e-09
5.74892e-07
-2.3367e-09
2.26382e-09
-2.49766e-09
6.15901e-07
1.7133e-09
-2.73749e-09
6.47146e-07
9.20786e-10
-2.886e-09
6.68221e-07
7.9012e-16
-2.96075e-09
6.78834e-07
-9.20783e-10
-2.96075e-09
6.78834e-07
-1.71329e-09
-2.886e-09
6.68221e-07
-2.26381e-09
-2.73748e-09
6.47146e-07
-2.49767e-09
-2.49767e-09
6.15901e-07
-2.22773e-09
5.74892e-07
-2.33669e-09
2.22772e-09
5.30392e-07
-2.16253e-09
-2.16253e-09
1.95619e-09
5.74892e-07
-2.33669e-09
1.46136e-09
6.08728e-07
-2.57575e-09
7.77659e-10
6.31535e-07
-2.70763e-09
2.00712e-15
6.43018e-07
-2.78024e-09
-7.77657e-10
6.43018e-07
-2.78024e-09
-1.46136e-09
6.31535e-07
-2.70763e-09
-1.95619e-09
6.08728e-07
-2.57574e-09
-2.22773e-09
5.74892e-07
-2.33669e-09
5.30392e-07
-2.16253e-09
-2.16253e-09
7.90071e-10
7.90069e-10
5.30322e-07
-7.55188e-10
-7.55195e-10
7.02148e-10
9.00786e-10
5.74905e-07
-8.25735e-10
5.28569e-10
9.99826e-10
6.0882e-07
-9.18026e-10
2.82669e-10
1.06381e-09
6.31689e-07
-9.71802e-10
-1.36539e-15
1.0964e-09
6.43205e-07
-1.00111e-09
-2.82673e-10
1.0964e-09
6.43205e-07
-1.00111e-09
-5.28569e-10
1.0638e-09
6.31689e-07
-9.71798e-10
-7.02148e-10
9.99832e-10
6.0882e-07
-9.18028e-10
-7.90071e-10
9.00797e-10
5.74905e-07
-8.25742e-10
7.90071e-10
5.30322e-07
-7.55188e-10
-7.55196e-10
9.00802e-10
7.02136e-10
5.74905e-07
-8.25742e-10
8.29222e-10
8.29216e-10
6.16045e-07
6.34381e-10
9.2836e-10
6.47412e-07
3.43201e-10
9.93342e-10
6.68583e-07
-2.43247e-15
1.02627e-09
6.79247e-07
-3.43207e-10
1.02626e-09
6.79247e-07
-6.34394e-10
9.93339e-10
6.68583e-07
-8.29239e-10
9.28361e-10
6.47412e-07
-9.00823e-10
8.29225e-10
6.16045e-07
7.02126e-10
5.74905e-07
-8.25745e-10
9.99827e-10
5.28559e-10
6.0882e-07
-9.1803e-10
9.28357e-10
6.34379e-10
6.47412e-07
7.13905e-10
7.13909e-10
6.76868e-07
3.87363e-10
7.66461e-10
6.96756e-07
1.17068e-15
7.92914e-10
7.06776e-07
-3.87361e-10
7.92913e-10
7.06776e-07
-7.13907e-10
7.6646e-10
6.96756e-07
-9.28361e-10
7.1391e-10
6.76868e-07
-9.99836e-10
6.34386e-10
6.47412e-07
5.28553e-10
6.0882e-07
-9.18037e-10
1.0638e-09
2.82666e-10
6.31689e-07
-9.718e-10
9.93331e-10
3.43199e-10
6.68583e-07
7.66452e-10
3.87365e-10
6.96756e-07
4.16733e-10
4.16737e-10
7.15783e-07
2.64062e-15
4.31476e-10
7.2537e-07
-4.16728e-10
4.31475e-10
7.2537e-07
-7.66449e-10
4.16736e-10
7.15783e-07
-9.93328e-10
3.87366e-10
6.96756e-07
-1.06379e-09
3.43201e-10
6.68583e-07
2.82666e-10
6.31689e-07
-9.71799e-10
1.0964e-09
-1.81126e-15
6.43205e-07
-1.00111e-09
1.02626e-09
1.18512e-15
6.79247e-07
7.92908e-10
3.32945e-15
7.06776e-07
4.31473e-10
3.82158e-15
7.2537e-07
3.099e-15
4.22098e-15
7.34739e-07
-4.31468e-10
3.9184e-15
7.34739e-07
-7.92904e-10
3.90104e-15
7.2537e-07
-1.02626e-09
4.87765e-15
7.06776e-07
-1.0964e-09
1.95907e-15
6.79247e-07
4.8869e-16
6.43205e-07
-1.00111e-09
1.0964e-09
-2.82672e-10
6.43205e-07
-1.00111e-09
1.02626e-09
-3.43196e-10
6.79247e-07
7.92908e-10
-3.87358e-10
7.06776e-07
4.31473e-10
-4.16729e-10
7.2537e-07
3.20074e-15
-4.31468e-10
7.34739e-07
-4.31467e-10
-4.31468e-10
7.34739e-07
-7.92903e-10
-4.16728e-10
7.2537e-07
-1.02626e-09
-3.87355e-10
7.06776e-07
-1.0964e-09
-3.43198e-10
6.79247e-07
-2.82665e-10
6.43205e-07
-1.00111e-09
1.06379e-09
-5.28562e-10
6.31689e-07
-9.71795e-10
9.93326e-10
-6.34378e-10
6.68583e-07
7.66449e-10
-7.13904e-10
6.96756e-07
4.16731e-10
-7.66455e-10
7.15783e-07
2.34499e-15
-7.92907e-10
7.2537e-07
-4.16727e-10
-7.92906e-10
7.2537e-07
-7.66447e-10
-7.66451e-10
7.15783e-07
-9.93327e-10
-7.139e-10
6.96756e-07
-1.06379e-09
-6.34381e-10
6.68583e-07
-5.28554e-10
6.31689e-07
-9.71796e-10
9.99811e-10
-7.02127e-10
6.0882e-07
-9.18024e-10
9.28349e-10
-8.29227e-10
6.47412e-07
7.13902e-10
-9.2836e-10
6.76868e-07
3.87362e-10
-9.93338e-10
6.96756e-07
2.27648e-15
-1.02626e-09
7.06776e-07
-3.87357e-10
-1.02626e-09
7.06776e-07
-7.13901e-10
-9.93332e-10
6.96756e-07
-9.28353e-10
-9.2835e-10
6.76868e-07
-9.99822e-10
-8.29222e-10
6.47412e-07
-7.0213e-10
6.0882e-07
-9.18023e-10
9.0082e-10
-7.9007e-10
5.74905e-07
-8.25746e-10
8.29232e-10
-9.00796e-10
6.16045e-07
6.34389e-10
-9.99829e-10
6.47412e-07
3.43203e-10
-1.0638e-09
6.68583e-07
6.26467e-16
-1.0964e-09
6.79247e-07
-3.43202e-10
-1.0964e-09
6.79247e-07
-6.34386e-10
-1.0638e-09
6.68583e-07
-8.29231e-10
-9.99814e-10
6.47412e-07
-9.00814e-10
-9.00795e-10
6.16045e-07
-7.90074e-10
5.74905e-07
-8.25739e-10
7.90078e-10
5.30322e-07
-7.55192e-10
-7.55196e-10
7.02144e-10
5.74905e-07
-8.25732e-10
5.28565e-10
6.0882e-07
-9.18028e-10
2.82668e-10
6.31689e-07
-9.71799e-10
-2.14462e-17
6.43205e-07
-1.00112e-09
-2.8267e-10
6.43205e-07
-1.00111e-09
-5.28565e-10
6.31689e-07
-9.71795e-10
-7.02136e-10
6.0882e-07
-9.18021e-10
-7.90072e-10
5.74905e-07
-8.25731e-10
5.30322e-07
-7.55194e-10
-7.55195e-10
2.8311e-10
2.83116e-10
5.30292e-07
-2.67913e-10
-2.67915e-10
2.53854e-10
3.26713e-10
5.74903e-07
-2.95588e-10
1.92219e-10
3.6582e-10
6.08847e-07
-3.30672e-10
1.03187e-10
3.91602e-10
6.31739e-07
-3.51713e-10
-4.99767e-15
4.04808e-10
6.43267e-07
-3.63095e-10
-1.03198e-10
4.04807e-10
6.43267e-07
-3.63093e-10
-1.92236e-10
3.91599e-10
6.31739e-07
-3.51708e-10
-2.53862e-10
3.658e-10
6.08847e-07
-3.30664e-10
-2.83112e-10
3.26693e-10
5.74903e-07
-2.95579e-10
2.8311e-10
5.30292e-07
-2.67912e-10
-2.67912e-10
3.26711e-10
2.53863e-10
5.74903e-07
-2.95589e-10
3.03952e-10
3.03948e-10
6.1609e-07
2.34265e-10
3.43842e-10
6.47504e-07
1.27313e-10
3.70558e-10
6.68711e-07
-2.44156e-16
3.84225e-10
6.79395e-07
-1.27314e-10
3.84224e-10
6.79395e-07
-2.34264e-10
3.70555e-10
6.68711e-07
-3.03957e-10
3.43832e-10
6.47504e-07
-3.26727e-10
3.03942e-10
6.1609e-07
2.53845e-10
5.74903e-07
-2.95594e-10
3.65835e-10
1.92216e-10
6.08847e-07
-3.30673e-10
3.43849e-10
2.34267e-10
6.47504e-07
2.66713e-10
2.6671e-10
6.77022e-07
1.45473e-10
2.88644e-10
6.9696e-07
4.07745e-15
2.99817e-10
7.07006e-07
-1.45463e-10
2.99815e-10
7.07006e-07
-2.667e-10
2.88639e-10
6.9696e-07
-3.43834e-10
2.66702e-10
6.77022e-07
-3.65808e-10
2.34256e-10
6.47504e-07
1.92216e-10
6.08847e-07
-3.30669e-10
3.91606e-10
1.03181e-10
6.31739e-07
-3.51715e-10
3.7056e-10
1.27315e-10
6.68711e-07
2.88643e-10
1.45473e-10
6.9696e-07
1.57838e-10
1.5784e-10
7.16045e-07
4.62757e-15
1.64127e-10
7.25663e-07
-1.57829e-10
1.64126e-10
7.25663e-07
-2.88632e-10
1.57835e-10
7.16045e-07
-3.70549e-10
1.45466e-10
6.9696e-07
-3.91594e-10
1.27307e-10
6.68711e-07
1.03187e-10
6.31739e-07
-3.51711e-10
4.04807e-10
-5.73008e-15
6.43267e-07
-3.63098e-10
3.84222e-10
2.76697e-15
6.79395e-07
2.99814e-10
5.09658e-15
7.07006e-07
1.64126e-10
5.5345e-15
7.25663e-07
3.84144e-15
4.83343e-15
7.35067e-07
-1.64118e-10
3.47571e-15
7.35067e-07
-2.99807e-10
1.71115e-15
7.25663e-07
-3.84217e-10
7.69821e-16
7.07006e-07
-4.04804e-10
-2.81811e-15
6.79395e-07
1.35173e-15
6.43267e-07
-3.63097e-10
4.04805e-10
-1.03197e-10
6.43267e-07
-3.63093e-10
3.8422e-10
-1.27309e-10
6.79395e-07
2.99812e-10
-1.45462e-10
7.07006e-07
1.64124e-10
-1.57829e-10
7.25663e-07
2.40516e-15
-1.64118e-10
7.35067e-07
-1.64119e-10
-1.64119e-10
7.35067e-07
-2.99809e-10
-1.57832e-10
7.25663e-07
-3.84218e-10
-1.45466e-10
7.07006e-07
-4.04804e-10
-1.27314e-10
6.79395e-07
-1.03183e-10
6.43267e-07
-3.63099e-10
3.91599e-10
-1.92234e-10
6.31739e-07
-3.51708e-10
3.70553e-10
-2.34259e-10
6.68711e-07
2.88637e-10
-2.667e-10
6.9696e-07
1.57834e-10
-2.88634e-10
7.16045e-07
1.16558e-15
-2.99809e-10
7.25663e-07
-1.57832e-10
-2.99809e-10
7.25663e-07
-2.88636e-10
-2.88637e-10
7.16045e-07
-3.70551e-10
-2.66704e-10
6.9696e-07
-3.91595e-10
-2.34266e-10
6.68711e-07
-1.92213e-10
6.31739e-07
-3.51709e-10
3.65813e-10
-2.53864e-10
6.08847e-07
-3.30669e-10
3.43838e-10
-3.03949e-10
6.47504e-07
2.66706e-10
-3.43835e-10
6.77022e-07
1.45469e-10
-3.70551e-10
6.9696e-07
2.32478e-15
-3.84218e-10
7.07006e-07
-1.45464e-10
-3.84218e-10
7.07006e-07
-2.66702e-10
-3.70552e-10
6.9696e-07
-3.43835e-10
-3.43839e-10
6.77022e-07
-3.65814e-10
-3.03952e-10
6.47504e-07
-2.5385e-10
6.08847e-07
-3.30665e-10
3.26708e-10
-2.83111e-10
5.74903e-07
-2.95593e-10
3.03946e-10
-3.26706e-10
6.1609e-07
2.34258e-10
-3.65807e-10
6.47504e-07
1.2731e-10
-3.91599e-10
6.68711e-07
-2.45235e-17
-4.04804e-10
6.79395e-07
-1.2731e-10
-4.04803e-10
6.79395e-07
-2.34262e-10
-3.91596e-10
6.68711e-07
-3.03944e-10
-3.65823e-10
6.47504e-07
-3.26707e-10
-3.26715e-10
6.1609e-07
-2.8311e-10
5.74903e-07
-2.95581e-10
2.83104e-10
5.30292e-07
-2.67906e-10
-2.67913e-10
2.53849e-10
5.74903e-07
-2.95584e-10
1.92219e-10
6.08847e-07
-3.30668e-10
1.03186e-10
6.31739e-07
-3.51712e-10
2.66979e-15
6.43267e-07
-3.63099e-10
-1.0318e-10
6.43267e-07
-3.63099e-10
-1.9221e-10
6.31739e-07
-3.51711e-10
-2.5385e-10
6.08847e-07
-3.30669e-10
-2.8311e-10
5.74903e-07
-2.95584e-10
5.30292e-07
-2.67912e-10
-2.67911e-10
1.01768e-10
1.0177e-10
5.3028e-07
-9.57813e-11
-9.57813e-11
9.17487e-11
1.184e-10
5.74901e-07
-1.06275e-10
6.97291e-11
1.33395e-10
6.08855e-07
-1.19378e-10
3.7525e-11
1.43423e-10
6.31755e-07
-1.27389e-10
-3.27744e-15
1.48581e-10
6.43288e-07
-1.31707e-10
-3.75334e-11
1.4858e-10
6.43288e-07
-1.31704e-10
-6.97421e-11
1.43425e-10
6.31755e-07
-1.27386e-10
-9.1769e-11
1.33405e-10
6.08855e-07
-1.19377e-10
-1.01775e-10
1.18389e-10
5.74901e-07
-1.06273e-10
1.01766e-10
5.3028e-07
-9.57802e-11
-9.57843e-11
1.18391e-10
9.17547e-11
5.74901e-07
-1.0627e-10
1.10916e-10
1.10919e-10
6.16105e-07
8.59218e-11
1.26427e-10
6.47536e-07
4.68427e-11
1.3697e-10
6.68757e-07
-1.78018e-15
1.42399e-10
6.79448e-07
-4.68468e-11
1.42399e-10
6.79448e-07
-8.5927e-11
1.36972e-10
6.68757e-07
-1.10919e-10
1.26431e-10
6.47536e-07
-1.18406e-10
1.10915e-10
6.16105e-07
9.17412e-11
5.74901e-07
-1.06275e-10
1.33394e-10
6.97295e-11
6.08855e-07
-1.19373e-10
1.26426e-10
8.59248e-11
6.47536e-07
9.86598e-11
9.86625e-11
6.77078e-07
5.40114e-11
1.0741e-10
6.97034e-07
6.25523e-16
1.11902e-10
7.07091e-07
-5.40105e-11
1.11902e-10
7.07091e-07
-9.8659e-11
1.07411e-10
6.97034e-07
-1.26426e-10
9.86645e-11
6.77078e-07
-1.33397e-10
8.59239e-11
6.47536e-07
6.97237e-11
6.08855e-07
-1.1938e-10
1.43419e-10
3.75241e-11
6.31755e-07
-1.27386e-10
1.36968e-10
4.68446e-11
6.68757e-07
1.07409e-10
5.40139e-11
6.97034e-07
5.89756e-11
5.89766e-11
7.16141e-07
2.17221e-15
6.15224e-11
7.25773e-07
-5.89716e-11
6.1522e-11
7.25773e-07
-1.07405e-10
5.89763e-11
7.16141e-07
-1.36964e-10
5.40145e-11
6.97034e-07
-1.43416e-10
4.68432e-11
6.68757e-07
3.75243e-11