/*--------------------------------*- C++ -*----------------------------------*\
| =========                 |                                                 |
| \\      /  F ield         | OpenFOAM: The Open Source CFD Toolbox           |
|  \\    /   O peration     | Version:  2412                                  |
|   \\  /    A nd           | Website:  www.openfoam.com                      |
|    \\/     M anipulation  |                                                 |
\*---------------------------------------------------------------------------*/
FoamFile
{
    version     2.0;
    format      ascii;
    arch        "LSB;label=32;scalar=64";
    class       volVectorField;
    location    "1.2";
    object      U;
}
// * * * * * * * * * * * * * * * * * * * * * * * * * * * * * * * * * * * * * //

dimensions      [0 1 -1 0 0 0 0];

internalField   nonuniform List<vector> 
15000
(
(0.000732011 0.000732011 0.0105271)
(0.000522673 0.000655406 0.0104679)
(0.000355196 0.000642028 0.0104255)
(0.000208794 0.000623417 0.0103977)
(6.84057e-05 0.000615643 0.0103842)
(-6.84058e-05 0.000615643 0.0103842)
(-0.000208794 0.000623417 0.0103977)
(-0.000355195 0.000642028 0.0104255)
(-0.000522673 0.000655406 0.0104679)
(-0.000732011 0.000732011 0.0105271)
(0.000655406 0.000522673 0.0104679)
(0.000487477 0.000487477 0.0104057)
(0.000337357 0.000468404 0.0103608)
(0.000198272 0.000455181 0.0103322)
(6.52284e-05 0.000449165 0.0103183)
(-6.52284e-05 0.000449165 0.0103183)
(-0.000198272 0.000455181 0.0103322)
(-0.000337357 0.000468404 0.0103608)
(-0.000487477 0.000487477 0.0104057)
(-0.000655406 0.000522673 0.0104679)
(0.000642028 0.000355196 0.0104255)
(0.000468404 0.000337357 0.0103608)
(0.000322517 0.000322517 0.0103157)
(0.000188581 0.000311728 0.0102875)
(6.19769e-05 0.000306442 0.0102739)
(-6.19769e-05 0.000306442 0.0102739)
(-0.000188581 0.000311728 0.0102875)
(-0.000322517 0.000322517 0.0103157)
(-0.000468404 0.000337357 0.0103608)
(-0.000642028 0.000355195 0.0104255)
(0.000623417 0.000208794 0.0103977)
(0.000455181 0.000198272 0.0103322)
(0.000311728 0.000188581 0.0102875)
(0.000181639 0.000181639 0.0102598)
(5.96332e-05 0.000178198 0.0102466)
(-5.96332e-05 0.000178198 0.0102466)
(-0.000181639 0.000181639 0.0102598)
(-0.000311728 0.000188581 0.0102875)
(-0.000455181 0.000198272 0.0103322)
(-0.000623417 0.000208794 0.0103977)
(0.000615643 6.84057e-05 0.0103842)
(0.000449165 6.52284e-05 0.0103183)
(0.000306442 6.19769e-05 0.0102739)
(0.000178198 5.96332e-05 0.0102466)
(5.84618e-05 5.84618e-05 0.0102337)
(-5.84618e-05 5.84618e-05 0.0102337)
(-0.000178198 5.96332e-05 0.0102466)
(-0.000306442 6.1977e-05 0.0102739)
(-0.000449165 6.52285e-05 0.0103183)
(-0.000615643 6.84057e-05 0.0103842)
(0.000615643 -6.84057e-05 0.0103842)
(0.000449165 -6.52285e-05 0.0103183)
(0.000306442 -6.1977e-05 0.0102739)
(0.000178198 -5.96331e-05 0.0102466)
(5.84618e-05 -5.84618e-05 0.0102337)
(-5.84618e-05 -5.84618e-05 0.0102337)
(-0.000178198 -5.96331e-05 0.0102466)
(-0.000306442 -6.19768e-05 0.0102739)
(-0.000449165 -6.52284e-05 0.0103183)
(-0.000615643 -6.84057e-05 0.0103842)
(0.000623417 -0.000208794 0.0103977)
(0.000455181 -0.000198272 0.0103322)
(0.000311728 -0.000188581 0.0102875)
(0.000181639 -0.000181639 0.0102598)
(5.96332e-05 -0.000178198 0.0102466)
(-5.96331e-05 -0.000178198 0.0102466)
(-0.000181639 -0.000181639 0.0102598)
(-0.000311728 -0.00018858 0.0102875)
(-0.000455181 -0.000198272 0.0103322)
(-0.000623417 -0.000208794 0.0103977)
(0.000642028 -0.000355196 0.0104255)
(0.000468404 -0.000337356 0.0103608)
(0.000322517 -0.000322517 0.0103157)
(0.000188581 -0.000311728 0.0102875)
(6.1977e-05 -0.000306442 0.0102739)
(-6.19769e-05 -0.000306442 0.0102739)
(-0.00018858 -0.000311728 0.0102875)
(-0.000322517 -0.000322517 0.0103157)
(-0.000468404 -0.000337357 0.0103608)
(-0.000642028 -0.000355196 0.0104255)
(0.000655406 -0.000522673 0.0104679)
(0.000487477 -0.000487477 0.0104057)
(0.000337356 -0.000468404 0.0103608)
(0.000198272 -0.000455181 0.0103322)
(6.52285e-05 -0.000449165 0.0103183)
(-6.52284e-05 -0.000449165 0.0103183)
(-0.000198272 -0.000455181 0.0103322)
(-0.000337357 -0.000468404 0.0103608)
(-0.000487477 -0.000487477 0.0104057)
(-0.000655406 -0.000522673 0.0104679)
(0.000732012 -0.000732011 0.0105271)
(0.000522673 -0.000655406 0.0104679)
(0.000355195 -0.000642028 0.0104255)
(0.000208794 -0.000623417 0.0103977)
(6.84057e-05 -0.000615643 0.0103842)
(-6.84057e-05 -0.000615643 0.0103842)
(-0.000208795 -0.000623417 0.0103977)
(-0.000355196 -0.000642028 0.0104255)
(-0.000522673 -0.000655406 0.0104679)
(-0.000732011 -0.000732012 0.0105271)
(0.000254079 0.000254079 0.0113333)
(0.000202166 0.000264237 0.0112363)
(0.00014843 0.000283137 0.0111656)
(9.16058e-05 0.000291991 0.0111187)
(3.06776e-05 0.000297196 0.0110958)
(-3.06777e-05 0.000297196 0.0110958)
(-9.16057e-05 0.000291991 0.0111187)
(-0.00014843 0.000283137 0.0111656)
(-0.000202166 0.000264237 0.0112363)
(-0.000254079 0.000254079 0.0113333)
(0.000264237 0.000202166 0.0112363)
(0.000218548 0.000218548 0.0111303)
(0.000163574 0.000232635 0.0110524)
(0.000101155 0.00024118 0.0110015)
(3.41356e-05 0.000245669 0.0109766)
(-3.41356e-05 0.000245669 0.0109766)
(-0.000101155 0.00024118 0.0110015)
(-0.000163574 0.000232635 0.0110524)
(-0.000218547 0.000218548 0.0111303)
(-0.000264237 0.000202166 0.0112363)
(0.000283137 0.00014843 0.0111656)
(0.000232635 0.000163574 0.0110524)
(0.000173944 0.000173944 0.0109709)
(0.000107264 0.000180071 0.0109186)
(3.61955e-05 0.000183063 0.0108931)
(-3.61955e-05 0.000183063 0.0108931)
(-0.000107264 0.000180071 0.0109186)
(-0.000173944 0.000173944 0.0109709)
(-0.000232635 0.000163574 0.0110524)
(-0.000283137 0.00014843 0.0111656)
(0.000291991 9.16057e-05 0.0111187)
(0.00024118 0.000101155 0.0110015)
(0.000180071 0.000107264 0.0109186)
(0.000110864 0.000110864 0.0108659)
(3.73993e-05 0.000112597 0.0108403)
(-3.73993e-05 0.000112597 0.0108403)
(-0.000110864 0.000110864 0.0108659)
(-0.000180071 0.000107264 0.0109186)
(-0.00024118 0.000101155 0.0110015)
(-0.000291991 9.16057e-05 0.0111187)
(0.000297196 3.06776e-05 0.0110958)
(0.000245669 3.41356e-05 0.0109766)
(0.000183063 3.61955e-05 0.0108931)
(0.000112597 3.73993e-05 0.0108403)
(3.79724e-05 3.79724e-05 0.0108148)
(-3.79724e-05 3.79724e-05 0.0108148)
(-0.000112597 3.73993e-05 0.0108403)
(-0.000183063 3.61956e-05 0.0108931)
(-0.000245669 3.41357e-05 0.0109766)
(-0.000297196 3.06776e-05 0.0110958)
(0.000297196 -3.06777e-05 0.0110958)
(0.000245669 -3.41356e-05 0.0109766)
(0.000183063 -3.61955e-05 0.0108931)
(0.000112597 -3.73993e-05 0.0108403)
(3.79724e-05 -3.79724e-05 0.0108148)
(-3.79724e-05 -3.79724e-05 0.0108148)
(-0.000112597 -3.73993e-05 0.0108403)
(-0.000183063 -3.61955e-05 0.0108931)
(-0.000245669 -3.41356e-05 0.0109766)
(-0.000297196 -3.06777e-05 0.0110958)
(0.000291991 -9.16057e-05 0.0111187)
(0.00024118 -0.000101155 0.0110015)
(0.000180071 -0.000107264 0.0109186)
(0.000110864 -0.000110864 0.0108659)
(3.73993e-05 -0.000112597 0.0108403)
(-3.73993e-05 -0.000112597 0.0108403)
(-0.000110864 -0.000110864 0.0108659)
(-0.000180071 -0.000107264 0.0109186)
(-0.00024118 -0.000101155 0.0110015)
(-0.000291991 -9.16059e-05 0.0111187)
(0.000283137 -0.00014843 0.0111656)
(0.000232635 -0.000163574 0.0110524)
(0.000173944 -0.000173944 0.0109709)
(0.000107264 -0.000180071 0.0109186)
(3.61956e-05 -0.000183063 0.0108931)
(-3.61955e-05 -0.000183063 0.0108931)
(-0.000107264 -0.000180071 0.0109186)
(-0.000173944 -0.000173944 0.0109709)
(-0.000232635 -0.000163574 0.0110524)
(-0.000283137 -0.00014843 0.0111656)
(0.000264237 -0.000202166 0.0112363)
(0.000218547 -0.000218547 0.0111303)
(0.000163574 -0.000232634 0.0110524)
(0.000101155 -0.00024118 0.0110015)
(3.41357e-05 -0.000245669 0.0109766)
(-3.41356e-05 -0.000245669 0.0109766)
(-0.000101155 -0.00024118 0.0110015)
(-0.000163574 -0.000232635 0.0110524)
(-0.000218547 -0.000218547 0.0111303)
(-0.000264237 -0.000202166 0.0112363)
(0.000254079 -0.000254079 0.0113333)
(0.000202166 -0.000264237 0.0112363)
(0.00014843 -0.000283137 0.0111656)
(9.16056e-05 -0.000291991 0.0111187)
(3.06776e-05 -0.000297196 0.0110958)
(-3.06777e-05 -0.000297196 0.0110958)
(-9.16059e-05 -0.000291991 0.0111187)
(-0.00014843 -0.000283137 0.0111656)
(-0.000202166 -0.000264237 0.0112363)
(-0.000254079 -0.000254079 0.0113333)
(0.000112632 0.000112632 0.011276)
(9.10666e-05 0.00011866 0.0112504)
(6.84025e-05 0.000128084 0.0112286)
(4.25825e-05 0.000133056 0.011213)
(1.43343e-05 0.000135877 0.0112052)
(-1.43343e-05 0.000135877 0.0112052)
(-4.25824e-05 0.000133056 0.011213)
(-6.84024e-05 0.000128084 0.0112286)
(-9.10667e-05 0.00011866 0.0112504)
(-0.000112632 0.000112632 0.011276)
(0.00011866 9.10667e-05 0.0112504)
(0.000100898 0.000100898 0.0112151)
(7.70732e-05 0.000108923 0.0111865)
(4.82339e-05 0.000114154 0.0111666)
(1.63791e-05 0.000116941 0.0111565)
(-1.63791e-05 0.000116941 0.0111565)
(-4.82339e-05 0.000114154 0.0111666)
(-7.70732e-05 0.000108923 0.0111865)
(-0.000100898 0.000100898 0.0112151)
(-0.00011866 9.10667e-05 0.0112504)
(0.000128084 6.84024e-05 0.0112286)
(0.000108923 7.70732e-05 0.0111865)
(8.34385e-05 8.34386e-05 0.0111531)
(5.22875e-05 8.76067e-05 0.0111302)
(1.77893e-05 8.97375e-05 0.0111186)
(-1.77892e-05 8.97375e-05 0.0111186)
(-5.22875e-05 8.76067e-05 0.0111302)
(-8.34385e-05 8.34386e-05 0.0111531)
(-0.000108923 7.70732e-05 0.0111865)
(-0.000128084 6.84025e-05 0.0112286)
(0.000133056 4.25824e-05 0.011213)
(0.000114154 4.82339e-05 0.0111666)
(8.76066e-05 5.22875e-05 0.0111302)
(5.49498e-05 5.49499e-05 0.0111054)
(1.87111e-05 5.6298e-05 0.0110928)
(-1.87111e-05 5.6298e-05 0.0110928)
(-5.49498e-05 5.49499e-05 0.0111054)
(-8.76066e-05 5.22876e-05 0.0111302)
(-0.000114154 4.82339e-05 0.0111666)
(-0.000133056 4.25825e-05 0.011213)
(0.000135877 1.43343e-05 0.0112052)
(0.000116941 1.63791e-05 0.0111565)
(8.97375e-05 1.77892e-05 0.0111186)
(5.6298e-05 1.87111e-05 0.0110928)
(1.91741e-05 1.91741e-05 0.0110798)
(-1.9174e-05 1.91741e-05 0.0110798)
(-5.6298e-05 1.87111e-05 0.0110928)
(-8.97375e-05 1.77893e-05 0.0111186)
(-0.000116941 1.63791e-05 0.0111565)
(-0.000135877 1.43344e-05 0.0112052)
(0.000135877 -1.43343e-05 0.0112052)
(0.000116941 -1.63791e-05 0.0111565)
(8.97375e-05 -1.77892e-05 0.0111186)
(5.6298e-05 -1.87111e-05 0.0110928)
(1.9174e-05 -1.9174e-05 0.0110798)
(-1.9174e-05 -1.9174e-05 0.0110798)
(-5.62979e-05 -1.87111e-05 0.0110928)
(-8.97375e-05 -1.77892e-05 0.0111186)
(-0.000116941 -1.63791e-05 0.0111565)
(-0.000135877 -1.43344e-05 0.0112052)
(0.000133056 -4.25825e-05 0.011213)
(0.000114154 -4.82339e-05 0.0111666)
(8.76067e-05 -5.22875e-05 0.0111302)
(5.49498e-05 -5.49498e-05 0.0111054)
(1.87111e-05 -5.6298e-05 0.0110928)
(-1.87111e-05 -5.62979e-05 0.0110928)
(-5.49498e-05 -5.49498e-05 0.0111054)
(-8.76066e-05 -5.22875e-05 0.0111302)
(-0.000114154 -4.8234e-05 0.0111666)
(-0.000133056 -4.25826e-05 0.011213)
(0.000128084 -6.84025e-05 0.0112286)
(0.000108923 -7.70732e-05 0.0111865)
(8.34385e-05 -8.34386e-05 0.0111531)
(5.22875e-05 -8.76066e-05 0.0111302)
(1.77893e-05 -8.97375e-05 0.0111186)
(-1.77892e-05 -8.97375e-05 0.0111186)
(-5.22875e-05 -8.76066e-05 0.0111302)
(-8.34386e-05 -8.34386e-05 0.0111531)
(-0.000108923 -7.70733e-05 0.0111865)
(-0.000128084 -6.84024e-05 0.0112286)
(0.00011866 -9.10667e-05 0.0112504)
(0.000100898 -0.000100898 0.0112151)
(7.70732e-05 -0.000108923 0.0111865)
(4.8234e-05 -0.000114154 0.0111666)
(1.63791e-05 -0.000116941 0.0111565)
(-1.63791e-05 -0.000116941 0.0111565)
(-4.8234e-05 -0.000114154 0.0111666)
(-7.70733e-05 -0.000108923 0.0111865)
(-0.000100898 -0.000100898 0.0112151)
(-0.00011866 -9.10665e-05 0.0112504)
(0.000112632 -0.000112632 0.011276)
(9.10666e-05 -0.00011866 0.0112504)
(6.84025e-05 -0.000128084 0.0112286)
(4.25825e-05 -0.000133056 0.011213)
(1.43343e-05 -0.000135877 0.0112052)
(-1.43344e-05 -0.000135877 0.0112052)
(-4.25826e-05 -0.000133056 0.011213)
(-6.84025e-05 -0.000128084 0.0112286)
(-9.10665e-05 -0.00011866 0.0112504)
(-0.000112632 -0.000112632 0.011276)
(4.00746e-05 4.00747e-05 0.0112873)
(3.37071e-05 4.47486e-05 0.0112792)
(2.6349e-05 5.00327e-05 0.0112703)
(1.67515e-05 5.31521e-05 0.0112636)
(5.70064e-06 5.48366e-05 0.0112602)
(-5.70061e-06 5.48366e-05 0.0112602)
(-1.67514e-05 5.31521e-05 0.0112636)
(-2.6349e-05 5.00327e-05 0.0112703)
(-3.3707e-05 4.47484e-05 0.0112792)
(-4.00746e-05 4.00745e-05 0.0112873)
(4.47486e-05 3.37071e-05 0.0112792)
(3.97982e-05 3.97983e-05 0.0112648)
(3.14997e-05 4.46776e-05 0.0112522)
(2.01328e-05 4.79342e-05 0.0112432)
(6.90758e-06 4.96356e-05 0.0112386)
(-6.90758e-06 4.96356e-05 0.0112386)
(-2.01329e-05 4.79342e-05 0.0112432)
(-3.14997e-05 4.46776e-05 0.0112522)
(-3.97981e-05 3.97982e-05 0.0112648)
(-4.47483e-05 3.3707e-05 0.0112792)
(5.00327e-05 2.6349e-05 0.0112703)
(4.46776e-05 3.14997e-05 0.0112522)
(3.54135e-05 3.54135e-05 0.011237)
(2.2635e-05 3.80161e-05 0.0112264)
(7.77334e-06 3.934e-05 0.0112209)
(-7.77331e-06 3.934e-05 0.0112209)
(-2.2635e-05 3.80161e-05 0.0112264)
(-3.54135e-05 3.54136e-05 0.011237)
(-4.46776e-05 3.14998e-05 0.0112522)
(-5.00326e-05 2.6349e-05 0.0112703)
(5.31521e-05 1.67514e-05 0.0112636)
(4.79342e-05 2.01328e-05 0.0112432)
(3.8016e-05 2.2635e-05 0.0112264)
(2.4304e-05 2.4304e-05 0.0112145)
(8.35099e-06 2.51514e-05 0.0112084)
(-8.35096e-06 2.51514e-05 0.0112084)
(-2.4304e-05 2.43041e-05 0.0112145)
(-3.8016e-05 2.2635e-05 0.0112264)
(-4.79342e-05 2.01329e-05 0.0112432)
(-5.31521e-05 1.67514e-05 0.0112636)
(5.48366e-05 5.70063e-06 0.0112602)
(4.96356e-05 6.90756e-06 0.0112386)
(3.934e-05 7.77333e-06 0.0112209)
(2.51514e-05 8.35099e-06 0.0112084)
(8.64323e-06 8.64323e-06 0.011202)
(-8.64319e-06 8.64323e-06 0.011202)
(-2.51514e-05 8.351e-06 0.0112084)
(-3.934e-05 7.77337e-06 0.0112209)
(-4.96356e-05 6.90761e-06 0.0112386)
(-5.48366e-05 5.70067e-06 0.0112602)
(5.48366e-05 -5.70062e-06 0.0112602)
(4.96356e-05 -6.90756e-06 0.0112386)
(3.934e-05 -7.77331e-06 0.0112209)
(2.51514e-05 -8.35096e-06 0.0112084)
(8.64323e-06 -8.64318e-06 0.011202)
(-8.64319e-06 -8.64319e-06 0.011202)
(-2.51514e-05 -8.35096e-06 0.0112084)
(-3.934e-05 -7.77329e-06 0.0112209)
(-4.96356e-05 -6.90757e-06 0.0112386)
(-5.48366e-05 -5.70066e-06 0.0112602)
(5.31521e-05 -1.67514e-05 0.0112636)
(4.79342e-05 -2.01329e-05 0.0112432)
(3.80161e-05 -2.2635e-05 0.0112264)
(2.43041e-05 -2.4304e-05 0.0112145)
(8.35101e-06 -2.51514e-05 0.0112084)
(-8.35096e-06 -2.51514e-05 0.0112084)
(-2.4304e-05 -2.4304e-05 0.0112145)
(-3.8016e-05 -2.2635e-05 0.0112264)
(-4.79342e-05 -2.01329e-05 0.0112432)
(-5.31521e-05 -1.67515e-05 0.0112636)
(5.00327e-05 -2.63489e-05 0.0112703)
(4.46775e-05 -3.14998e-05 0.0112522)
(3.54136e-05 -3.54135e-05 0.011237)
(2.2635e-05 -3.8016e-05 0.0112264)
(7.77336e-06 -3.934e-05 0.0112209)
(-7.7733e-06 -3.934e-05 0.0112209)
(-2.2635e-05 -3.80161e-05 0.0112264)
(-3.54136e-05 -3.54136e-05 0.011237)
(-4.46777e-05 -3.14999e-05 0.0112522)
(-5.00327e-05 -2.63489e-05 0.0112703)
(4.47484e-05 -3.37071e-05 0.0112792)
(3.97982e-05 -3.97982e-05 0.0112648)
(3.14998e-05 -4.46775e-05 0.0112522)
(2.01329e-05 -4.79341e-05 0.0112432)
(6.90759e-06 -4.96356e-05 0.0112386)
(-6.90756e-06 -4.96356e-05 0.0112386)
(-2.01329e-05 -4.79342e-05 0.0112432)
(-3.14999e-05 -4.46777e-05 0.0112522)
(-3.97982e-05 -3.97982e-05 0.0112648)
(-4.47484e-05 -3.3707e-05 0.0112792)
(4.00746e-05 -4.00747e-05 0.0112873)
(3.37071e-05 -4.47484e-05 0.0112792)
(2.6349e-05 -5.00327e-05 0.0112703)
(1.67514e-05 -5.31521e-05 0.0112636)
(5.70063e-06 -5.48366e-05 0.0112602)
(-5.70063e-06 -5.48366e-05 0.0112602)
(-1.67515e-05 -5.31521e-05 0.0112636)
(-2.63491e-05 -5.00327e-05 0.0112703)
(-3.3707e-05 -4.47484e-05 0.0112792)
(-4.00746e-05 -4.00747e-05 0.0112873)
(1.36042e-05 1.36043e-05 0.0112863)
(1.16904e-05 1.57553e-05 0.0112862)
(9.35816e-06 1.8049e-05 0.0112834)
(6.0217e-06 1.95038e-05 0.011281)
(2.06338e-06 2.02879e-05 0.0112797)
(-2.06338e-06 2.02879e-05 0.0112797)
(-6.02168e-06 1.95038e-05 0.011281)
(-9.3581e-06 1.80491e-05 0.0112834)
(-1.16905e-05 1.57554e-05 0.0112862)
(-1.36042e-05 1.36042e-05 0.0112863)
(1.57553e-05 1.16905e-05 0.0112862)
(1.4448e-05 1.44481e-05 0.0112814)
(1.17266e-05 1.6727e-05 0.0112764)
(7.61178e-06 1.83098e-05 0.0112727)
(2.6323e-06 1.91442e-05 0.0112708)
(-2.63229e-06 1.91442e-05 0.0112708)
(-7.61171e-06 1.83098e-05 0.0112727)
(-1.17265e-05 1.67271e-05 0.0112764)
(-1.44481e-05 1.44481e-05 0.0112814)
(-1.57553e-05 1.16905e-05 0.0112862)
(1.8049e-05 9.35814e-06 0.0112834)
(1.6727e-05 1.17266e-05 0.0112764)
(1.36265e-05 1.36266e-05 0.0112701)
(8.85712e-06 1.49403e-05 0.0112655)
(3.06743e-06 1.56201e-05 0.0112631)
(-3.0674e-06 1.56201e-05 0.0112631)
(-8.85707e-06 1.49404e-05 0.0112655)
(-1.36265e-05 1.36265e-05 0.0112701)
(-1.6727e-05 1.17266e-05 0.0112764)
(-1.80491e-05 9.35819e-06 0.0112834)
(1.95038e-05 6.02166e-06 0.011281)
(1.83097e-05 7.61179e-06 0.0112727)
(1.49403e-05 8.85714e-06 0.0112655)
(9.72248e-06 9.7225e-06 0.0112602)
(3.37011e-06 1.01698e-05 0.0112575)
(-3.37006e-06 1.01698e-05 0.0112575)
(-9.72245e-06 9.7225e-06 0.0112602)
(-1.49403e-05 8.85713e-06 0.0112655)
(-1.83098e-05 7.61177e-06 0.0112727)
(-1.95038e-05 6.0217e-06 0.011281)
(2.02879e-05 2.06336e-06 0.0112797)
(1.91442e-05 2.6323e-06 0.0112708)
(1.56201e-05 3.06745e-06 0.0112631)
(1.01698e-05 3.37012e-06 0.0112575)
(3.52609e-06 3.5261e-06 0.0112545)
(-3.52605e-06 3.52609e-06 0.0112545)
(-1.01697e-05 3.3701e-06 0.0112575)
(-1.56201e-05 3.06745e-06 0.0112631)
(-1.91442e-05 2.63232e-06 0.0112708)
(-2.02879e-05 2.06341e-06 0.0112797)
(2.02879e-05 -2.06337e-06 0.0112797)
(1.91442e-05 -2.63226e-06 0.0112708)
(1.56201e-05 -3.06739e-06 0.0112631)
(1.01698e-05 -3.37006e-06 0.0112575)
(3.52608e-06 -3.52604e-06 0.0112545)
(-3.52605e-06 -3.52605e-06 0.0112545)
(-1.01697e-05 -3.37007e-06 0.0112575)
(-1.56201e-05 -3.0674e-06 0.0112631)
(-1.91442e-05 -2.6323e-06 0.0112708)
(-2.02879e-05 -2.0634e-06 0.0112797)
(1.95039e-05 -6.02169e-06 0.011281)
(1.83098e-05 -7.61172e-06 0.0112727)
(1.49403e-05 -8.85708e-06 0.0112655)
(9.72248e-06 -9.72245e-06 0.0112602)
(3.3701e-06 -1.01697e-05 0.0112575)
(-3.37008e-06 -1.01697e-05 0.0112575)
(-9.72245e-06 -9.72245e-06 0.0112602)
(-1.49403e-05 -8.85709e-06 0.0112655)
(-1.83098e-05 -7.6118e-06 0.0112727)
(-1.95038e-05 -6.02176e-06 0.011281)
(1.80492e-05 -9.35816e-06 0.0112834)
(1.67271e-05 -1.17266e-05 0.0112764)
(1.36265e-05 -1.36265e-05 0.0112701)
(8.85711e-06 -1.49403e-05 0.0112655)
(3.06744e-06 -1.56201e-05 0.0112631)
(-3.06741e-06 -1.56201e-05 0.0112631)
(-8.8571e-06 -1.49403e-05 0.0112655)
(-1.36266e-05 -1.36266e-05 0.0112701)
(-1.67271e-05 -1.17267e-05 0.0112764)
(-1.80491e-05 -9.35818e-06 0.0112834)
(1.57554e-05 -1.16905e-05 0.0112862)
(1.44481e-05 -1.44482e-05 0.0112814)
(1.17266e-05 -1.67271e-05 0.0112764)
(7.61173e-06 -1.83098e-05 0.0112727)
(2.63231e-06 -1.91442e-05 0.0112708)
(-2.6323e-06 -1.91442e-05 0.0112708)
(-7.61179e-06 -1.83098e-05 0.0112727)
(-1.17267e-05 -1.67271e-05 0.0112764)
(-1.44481e-05 -1.44482e-05 0.0112814)
(-1.57553e-05 -1.16904e-05 0.0112862)
(1.36042e-05 -1.36042e-05 0.0112863)
(1.16905e-05 -1.57554e-05 0.0112862)
(9.35823e-06 -1.80491e-05 0.0112834)
(6.02173e-06 -1.95038e-05 0.011281)
(2.06342e-06 -2.02879e-05 0.0112797)
(-2.06339e-06 -2.02879e-05 0.0112797)
(-6.02176e-06 -1.95038e-05 0.011281)
(-9.35824e-06 -1.80491e-05 0.0112834)
(-1.16904e-05 -1.57553e-05 0.0112862)
(-1.36042e-05 -1.36042e-05 0.0112863)
(4.80585e-06 4.80598e-06 0.0112836)
(4.16897e-06 5.64437e-06 0.0112864)
(3.37659e-06 6.5297e-06 0.011286)
(2.18427e-06 7.11095e-06 0.0112853)
(7.51087e-07 7.42485e-06 0.0112849)
(-7.51102e-07 7.42485e-06 0.0112849)
(-2.18421e-06 7.11094e-06 0.0112853)
(-3.3765e-06 6.52969e-06 0.011286)
(-4.16897e-06 5.64437e-06 0.0112864)
(-4.80585e-06 4.80596e-06 0.0112836)
(5.64436e-06 4.16901e-06 0.0112864)
(5.25889e-06 5.25893e-06 0.0112855)
(4.32691e-06 6.17957e-06 0.0112837)
(2.83232e-06 6.83572e-06 0.0112824)
(9.8385e-07 7.18494e-06 0.0112816)
(-9.83883e-07 7.18496e-06 0.0112816)
(-2.83235e-06 6.83574e-06 0.0112824)
(-4.32691e-06 6.17955e-06 0.0112837)
(-5.25875e-06 5.25886e-06 0.0112855)
(-5.64423e-06 4.16903e-06 0.0112864)
(6.52972e-06 3.37657e-06 0.011286)
(6.17955e-06 4.32694e-06 0.0112837)
(5.11627e-06 5.11628e-06 0.0112813)
(3.35999e-06 5.67768e-06 0.0112795)
(1.16983e-06 5.97235e-06 0.0112786)
(-1.16982e-06 5.97237e-06 0.0112786)
(-3.35997e-06 5.67773e-06 0.0112795)
(-5.11624e-06 5.11634e-06 0.0112813)
(-6.17947e-06 4.32699e-06 0.0112837)
(-6.52969e-06 3.37651e-06 0.011286)
(7.11097e-06 2.18427e-06 0.0112853)
(6.83572e-06 2.83235e-06 0.0112824)
(5.67766e-06 3.36001e-06 0.0112795)
(3.73776e-06 3.73778e-06 0.0112774)
(1.30322e-06 3.93606e-06 0.0112763)
(-1.30319e-06 3.93606e-06 0.0112763)
(-3.73774e-06 3.73779e-06 0.0112774)
(-5.67765e-06 3.36002e-06 0.0112795)
(-6.8357e-06 2.83236e-06 0.0112824)
(-7.11095e-06 2.18421e-06 0.0112853)
(7.42488e-06 7.51098e-07 0.0112849)
(7.18494e-06 9.83868e-07 0.0112816)
(5.97232e-06 1.16984e-06 0.0112786)
(3.93604e-06 1.30322e-06 0.0112763)
(1.37307e-06 1.37308e-06 0.0112751)
(-1.37303e-06 1.37308e-06 0.0112751)
(-3.93601e-06 1.30323e-06 0.0112763)
(-5.9723e-06 1.16986e-06 0.0112786)
(-7.18492e-06 9.83885e-07 0.0112816)
(-7.42486e-06 7.51114e-07 0.0112849)
(7.42488e-06 -7.51122e-07 0.0112849)
(7.18495e-06 -9.83852e-07 0.0112816)
(5.97233e-06 -1.1698e-06 0.0112786)
(3.93604e-06 -1.30318e-06 0.0112763)
(1.37307e-06 -1.37303e-06 0.0112751)
(-1.37303e-06 -1.37303e-06 0.0112751)
(-3.93601e-06 -1.30318e-06 0.0112763)
(-5.97231e-06 -1.1698e-06 0.0112786)
(-7.18493e-06 -9.83858e-07 0.0112816)
(-7.42488e-06 -7.51109e-07 0.0112849)
(7.11101e-06 -2.18426e-06 0.0112853)
(6.83577e-06 -2.83231e-06 0.0112824)
(5.67768e-06 -3.35995e-06 0.0112795)
(3.73776e-06 -3.73772e-06 0.0112774)
(1.30322e-06 -3.93601e-06 0.0112763)
(-1.30319e-06 -3.93601e-06 0.0112763)
(-3.73773e-06 -3.73774e-06 0.0112774)
(-5.67766e-06 -3.35996e-06 0.0112795)
(-6.83574e-06 -2.83235e-06 0.0112824)
(-7.11098e-06 -2.18427e-06 0.0112853)
(6.52978e-06 -3.37649e-06 0.011286)
(6.17961e-06 -4.32698e-06 0.0112837)
(5.11628e-06 -5.11626e-06 0.0112813)
(3.35998e-06 -5.67767e-06 0.0112795)
(1.16983e-06 -5.97233e-06 0.0112786)
(-1.16981e-06 -5.97233e-06 0.0112786)
(-3.35996e-06 -5.67768e-06 0.0112795)
(-5.11629e-06 -5.1163e-06 0.0112813)
(-6.17959e-06 -4.32707e-06 0.0112837)
(-6.5297e-06 -3.37655e-06 0.011286)
(5.64433e-06 -4.16894e-06 0.0112864)
(5.25887e-06 -5.25894e-06 0.0112855)
(4.32698e-06 -6.17959e-06 0.0112837)
(2.83232e-06 -6.83575e-06 0.0112824)
(9.83867e-07 -7.18494e-06 0.0112816)
(-9.8386e-07 -7.18496e-06 0.0112816)
(-2.83233e-06 -6.83575e-06 0.0112824)
(-4.32705e-06 -6.17962e-06 0.0112837)
(-5.25888e-06 -5.25893e-06 0.0112855)
(-5.64424e-06 -4.16896e-06 0.0112864)
(4.80583e-06 -4.80588e-06 0.0112836)
(4.16894e-06 -5.64429e-06 0.0112864)
(3.37658e-06 -6.52971e-06 0.011286)
(2.18427e-06 -7.11095e-06 0.0112853)
(7.51114e-07 -7.42487e-06 0.0112849)
(-7.51113e-07 -7.42487e-06 0.0112849)
(-2.18427e-06 -7.11097e-06 0.0112853)
(-3.3766e-06 -6.52974e-06 0.011286)
(-4.16894e-06 -5.64427e-06 0.0112864)
(-4.80583e-06 -4.80587e-06 0.0112836)
(1.71631e-06 1.71627e-06 0.0112826)
(1.49994e-06 2.03737e-06 0.0112863)
(1.2253e-06 2.37362e-06 0.0112867)
(7.95912e-07 2.59845e-06 0.0112866)
(2.74417e-07 2.71984e-06 0.0112865)
(-2.74481e-07 2.71984e-06 0.0112865)
(-7.95942e-07 2.59849e-06 0.0112866)
(-1.22528e-06 2.37375e-06 0.0112867)
(-1.49988e-06 2.03753e-06 0.0112863)
(-1.71622e-06 1.71643e-06 0.0112826)
(2.03736e-06 1.49995e-06 0.0112863)
(1.91874e-06 1.91873e-06 0.0112867)
(1.59368e-06 2.27723e-06 0.0112862)
(1.04929e-06 2.53644e-06 0.0112857)
(3.65615e-07 2.67509e-06 0.0112854)
(-3.65618e-07 2.67512e-06 0.0112854)
(-1.04924e-06 2.53652e-06 0.0112857)
(-1.59362e-06 2.27737e-06 0.0112862)
(-1.91873e-06 1.91891e-06 0.0112867)
(-2.03744e-06 1.49998e-06 0.0112863)
(2.37354e-06 1.2253e-06 0.0112867)
(2.27721e-06 1.59368e-06 0.0112862)
(1.90589e-06 1.90587e-06 0.0112853)
(1.26031e-06 2.13149e-06 0.0112846)
(4.40365e-07 2.2509e-06 0.0112842)
(-4.40315e-07 2.25091e-06 0.0112842)
(-1.26022e-06 2.13152e-06 0.0112846)
(-1.90576e-06 1.90587e-06 0.0112853)
(-2.27727e-06 1.59371e-06 0.0112862)
(-2.37371e-06 1.22525e-06 0.0112867)
(2.5984e-06 7.95932e-07 0.0112866)
(2.53643e-06 1.04935e-06 0.0112857)
(2.13149e-06 1.26032e-06 0.0112846)
(1.41402e-06 1.41403e-06 0.0112838)
(4.94954e-07 1.49547e-06 0.0112834)
(-4.94897e-07 1.49547e-06 0.0112834)
(-1.41397e-06 1.41403e-06 0.0112838)
(-2.13143e-06 1.26027e-06 0.0112846)
(-2.53646e-06 1.04924e-06 0.0112857)
(-2.59849e-06 7.9593e-07 0.0112866)
(2.71983e-06 2.74425e-07 0.0112865)
(2.67507e-06 3.65648e-07 0.0112854)
(2.25087e-06 4.40376e-07 0.0112842)
(1.49545e-06 4.94962e-07 0.0112834)
(5.2382e-07 5.23829e-07 0.0112829)
(-5.23772e-07 5.23821e-07 0.0112829)
(-1.49541e-06 4.94942e-07 0.0112834)
(-2.25085e-06 4.40348e-07 0.0112842)
(-2.67507e-06 3.656e-07 0.0112854)
(-2.71985e-06 2.7447e-07 0.0112865)
(2.71983e-06 -2.74494e-07 0.0112865)
(2.67511e-06 -3.65612e-07 0.0112854)
(2.25089e-06 -4.40312e-07 0.0112842)
(1.49545e-06 -4.94894e-07 0.0112834)
(5.23813e-07 -5.23769e-07 0.0112829)
(-5.23784e-07 -5.23778e-07 0.0112829)
(-1.49542e-06 -4.9492e-07 0.0112834)
(-2.25086e-06 -4.40337e-07 0.0112842)
(-2.67507e-06 -3.65636e-07 0.0112854)
(-2.71985e-06 -2.74455e-07 0.0112865)
(2.59848e-06 -7.95908e-07 0.0112866)
(2.53651e-06 -1.04923e-06 0.0112857)
(2.1315e-06 -1.26022e-06 0.0112846)
(1.41401e-06 -1.41398e-06 0.0112838)
(4.94936e-07 -1.49542e-06 0.0112834)
(-4.94922e-07 -1.49542e-06 0.0112834)
(-1.41399e-06 -1.41399e-06 0.0112838)
(-2.13147e-06 -1.26026e-06 0.0112846)
(-2.53645e-06 -1.04931e-06 0.0112857)
(-2.59846e-06 -7.95943e-07 0.0112866)
(2.37374e-06 -1.22523e-06 0.0112867)
(2.27732e-06 -1.59363e-06 0.0112862)
(1.90583e-06 -1.90579e-06 0.0112853)
(1.26026e-06 -2.13147e-06 0.0112846)
(4.4036e-07 -2.25086e-06 0.0112842)
(-4.40331e-07 -2.25086e-06 0.0112842)
(-1.26027e-06 -2.13148e-06 0.0112846)
(-1.90588e-06 -1.90589e-06 0.0112853)
(-2.27728e-06 -1.59378e-06 0.0112862)
(-2.37363e-06 -1.22529e-06 0.0112867)
(2.03759e-06 -1.49999e-06 0.0112863)
(1.91883e-06 -1.91886e-06 0.0112867)
(1.59366e-06 -2.27733e-06 0.0112862)
(1.04924e-06 -2.53647e-06 0.0112857)
(3.65632e-07 -2.67506e-06 0.0112854)
(-3.65633e-07 -2.67507e-06 0.0112854)
(-1.04932e-06 -2.53645e-06 0.0112857)
(-1.59377e-06 -2.27726e-06 0.0112862)
(-1.91873e-06 -1.91873e-06 0.0112867)
(-2.03732e-06 -1.49992e-06 0.0112863)
(1.71641e-06 -1.71635e-06 0.0112826)
(1.49996e-06 -2.03751e-06 0.0112863)
(1.22534e-06 -2.37372e-06 0.0112867)
(7.95995e-07 -2.59847e-06 0.0112866)
(2.74492e-07 -2.71985e-06 0.0112865)
(-2.74456e-07 -2.71985e-06 0.0112865)
(-7.95919e-07 -2.59844e-06 0.0112866)
(-1.22528e-06 -2.37361e-06 0.0112867)
(-1.49994e-06 -2.03732e-06 0.0112863)
(-1.71628e-06 -1.71625e-06 0.0112826)
(6.15666e-07 6.15566e-07 0.0112822)
(5.4049e-07 7.35998e-07 0.0112862)
(4.43855e-07 8.61754e-07 0.011287)
(2.89074e-07 9.469e-07 0.0112871)
(9.98349e-08 9.92907e-07 0.0112871)
(-9.98752e-08 9.92896e-07 0.0112871)
(-2.89048e-07 9.46872e-07 0.0112871)
(-4.43804e-07 8.61741e-07 0.011287)
(-5.40467e-07 7.36099e-07 0.0112862)
(-6.15572e-07 6.15772e-07 0.0112822)
(7.35986e-07 5.40454e-07 0.0112862)
(6.98033e-07 6.97998e-07 0.0112871)
(5.83473e-07 8.34361e-07 0.011287)
(3.8571e-07 9.33975e-07 0.0112869)
(1.34681e-07 9.87478e-07 0.0112868)
(-1.34704e-07 9.87493e-07 0.0112868)
(-3.8571e-07 9.34002e-07 0.0112869)
(-5.83417e-07 8.34378e-07 0.011287)
(-6.9795e-07 6.98068e-07 0.0112871)
(-7.35998e-07 5.40524e-07 0.0112862)
(8.61701e-07 4.43859e-07 0.011287)
(8.34383e-07 5.83471e-07 0.011287)
(7.03562e-07 7.03552e-07 0.0112867)
(4.67508e-07 7.91327e-07 0.0112865)
(1.63765e-07 8.38076e-07 0.0112863)
(-1.63757e-07 8.38087e-07 0.0112863)
(-4.67477e-07 7.91364e-07 0.0112865)
(-7.03467e-07 7.03576e-07 0.0112867)
(-8.34319e-07 5.83484e-07 0.011287)
(-8.61778e-07 4.43835e-07 0.011287)
(9.4688e-07 2.891e-07 0.0112871)
(9.33989e-07 3.85733e-07 0.0112869)
(7.9133e-07 4.67512e-07 0.0112865)
(5.27847e-07 5.27852e-07 0.0112862)
(1.85287e-07 5.60042e-07 0.011286)
(-1.8526e-07 5.60048e-07 0.011286)
(-5.27827e-07 5.27873e-07 0.0112862)
(-7.91292e-07 4.6751e-07 0.0112865)
(-9.33949e-07 3.85676e-07 0.0112869)
(-9.4689e-07 2.89055e-07 0.0112871)
(9.92921e-07 9.98429e-08 0.0112871)
(9.87477e-07 1.34682e-07 0.0112868)
(8.38069e-07 1.63765e-07 0.0112863)
(5.60038e-07 1.85292e-07 0.011286)
(1.96754e-07 1.96757e-07 0.0112858)
(-1.96718e-07 1.96756e-07 0.0112858)
(-5.60012e-07 1.85294e-07 0.011286)
(-8.38047e-07 1.6378e-07 0.0112863)
(-9.8745e-07 1.34688e-07 0.0112868)
(-9.92903e-07 9.98618e-08 0.0112871)
(9.92903e-07 -9.98773e-08 0.0112871)
(9.87498e-07 -1.34681e-07 0.0112868)
(8.38092e-07 -1.63736e-07 0.0112863)
(5.60046e-07 -1.85254e-07 0.011286)
(1.96751e-07 -1.96717e-07 0.0112858)
(-1.96721e-07 -1.96721e-07 0.0112858)
(-5.60009e-07 -1.85264e-07 0.011286)
(-8.3805e-07 -1.63746e-07 0.0112863)
(-9.87455e-07 -1.34694e-07 0.0112868)
(-9.92909e-07 -9.98479e-08 0.0112871)
(9.46908e-07 -2.8904e-07 0.0112871)
(9.3402e-07 -3.8565e-07 0.0112869)
(7.91338e-07 -4.67467e-07 0.0112865)
(5.2785e-07 -5.27835e-07 0.0112862)
(1.85287e-07 -5.60014e-07 0.011286)
(-1.85265e-07 -5.60016e-07 0.011286)
(-5.27829e-07 -5.2784e-07 0.0112862)
(-7.9132e-07 -4.67489e-07 0.0112865)
(-9.33958e-07 -3.85711e-07 0.0112869)
(-9.46873e-07 -2.89033e-07 0.0112871)
(8.61814e-07 -4.43787e-07 0.011287)
(8.34389e-07 -5.83473e-07 0.011287)
(7.03518e-07 -7.03547e-07 0.0112867)
(4.67499e-07 -7.91315e-07 0.0112865)
(1.63777e-07 -8.38048e-07 0.0112863)
(-1.63756e-07 -8.38063e-07 0.0112863)
(-4.67482e-07 -7.91337e-07 0.0112865)
(-7.03531e-07 -7.0354e-07 0.0112867)
(-8.34316e-07 -5.8347e-07 0.011287)
(-8.61722e-07 -4.43815e-07 0.011287)
(7.36022e-07 -5.40463e-07 0.0112862)
(6.97988e-07 -6.98039e-07 0.0112871)
(5.83489e-07 -8.34337e-07 0.011287)
(3.85736e-07 -9.33931e-07 0.0112869)
(1.34691e-07 -9.87441e-07 0.0112868)
(-1.34711e-07 -9.87453e-07 0.0112868)
(-3.85695e-07 -9.33956e-07 0.0112869)
(-5.83455e-07 -8.34348e-07 0.011287)
(-6.97968e-07 -6.98005e-07 0.0112871)
(-7.35976e-07 -5.40522e-07 0.0112862)
(6.1559e-07 -6.15589e-07 0.0112822)
(5.40492e-07 -7.35922e-07 0.0112862)