/*--------------------------------*- C++ -*----------------------------------*\
| =========                 |                                                 |
| \\      /  F ield         | OpenFOAM: The Open Source CFD Toolbox           |
|  \\    /   O peration     | Version:  2412                                  |
|   \\  /    A nd           | Website:  www.openfoam.com                      |
|    \\/     M anipulation  |                                                 |
\*---------------------------------------------------------------------------*/
FoamFile
{
    version     2.0;
    format      ascii;
    arch        "LSB;label=32;scalar=64";
    class       volVectorField;
    location    "2.2";
    object      U;
}
// * * * * * * * * * * * * * * * * * * * * * * * * * * * * * * * * * * * * * //

dimensions      [0 1 -1 0 0 0 0];

internalField   nonuniform List<vector> 
15000
(
(0.000981835 0.000981835 0.0106355)
(0.000715411 0.000902074 0.0105805)
(0.000484802 0.000881781 0.0105307)
(0.00028443 0.00085988 0.010495)
(9.3201e-05 0.000850379 0.0104772)
(-9.3201e-05 0.000850379 0.0104772)
(-0.00028443 0.00085988 0.010495)
(-0.000484802 0.000881781 0.0105307)
(-0.000715411 0.000902074 0.0105805)
(-0.000981835 0.000981835 0.0106355)
(0.000902074 0.000715411 0.0105805)
(0.000669768 0.000669768 0.010505)
(0.000459554 0.000642293 0.0104447)
(0.000268695 0.000623277 0.0104048)
(8.82031e-05 0.000614424 0.0103854)
(-8.82031e-05 0.000614424 0.0103854)
(-0.000268695 0.000623277 0.0104048)
(-0.000459554 0.000642293 0.0104447)
(-0.000669768 0.000669768 0.010505)
(-0.000902074 0.000715411 0.0105805)
(0.000881781 0.000484802 0.0105307)
(0.000642293 0.000459554 0.0104447)
(0.000438323 0.000438323 0.0103813)
(0.000254995 0.000423038 0.0103409)
(8.35896e-05 0.000415495 0.0103214)
(-8.35896e-05 0.000415495 0.0103214)
(-0.000254995 0.000423038 0.0103409)
(-0.000438323 0.000438323 0.0103813)
(-0.000642293 0.000459554 0.0104447)
(-0.000881781 0.000484802 0.0105307)
(0.00085988 0.00028443 0.010495)
(0.000623277 0.000268695 0.0104048)
(0.000423038 0.000254995 0.0103409)
(0.00024511 0.00024511 0.0103008)
(8.02315e-05 0.000240169 0.0102817)
(-8.02315e-05 0.000240169 0.0102817)
(-0.00024511 0.00024511 0.0103008)
(-0.000423038 0.000254995 0.0103409)
(-0.000623277 0.000268695 0.0104048)
(-0.00085988 0.00028443 0.010495)
(0.000850379 9.3201e-05 0.0104772)
(0.000614424 8.82031e-05 0.0103854)
(0.000415495 8.35896e-05 0.0103214)
(0.000240169 8.02315e-05 0.0102817)
(7.85435e-05 7.85435e-05 0.0102627)
(-7.85435e-05 7.85435e-05 0.0102627)
(-0.000240169 8.02315e-05 0.0102817)
(-0.000415495 8.35896e-05 0.0103214)
(-0.000614424 8.82031e-05 0.0103854)
(-0.000850379 9.32011e-05 0.0104772)
(0.000850379 -9.3201e-05 0.0104772)
(0.000614424 -8.82031e-05 0.0103854)
(0.000415495 -8.35896e-05 0.0103214)
(0.000240169 -8.02315e-05 0.0102817)
(7.85435e-05 -7.85435e-05 0.0102627)
(-7.85435e-05 -7.85435e-05 0.0102627)
(-0.000240169 -8.02315e-05 0.0102817)
(-0.000415494 -8.35896e-05 0.0103214)
(-0.000614424 -8.82031e-05 0.0103854)
(-0.000850379 -9.3201e-05 0.0104772)
(0.00085988 -0.00028443 0.010495)
(0.000623277 -0.000268695 0.0104048)
(0.000423038 -0.000254995 0.0103409)
(0.00024511 -0.00024511 0.0103008)
(8.02315e-05 -0.000240169 0.0102817)
(-8.02315e-05 -0.000240169 0.0102817)
(-0.00024511 -0.00024511 0.0103008)
(-0.000423038 -0.000254995 0.0103409)
(-0.000623277 -0.000268695 0.0104048)
(-0.00085988 -0.00028443 0.010495)
(0.000881781 -0.000484802 0.0105307)
(0.000642293 -0.000459554 0.0104447)
(0.000438323 -0.000438323 0.0103813)
(0.000254995 -0.000423038 0.0103409)
(8.35896e-05 -0.000415495 0.0103214)
(-8.35896e-05 -0.000415494 0.0103214)
(-0.000254995 -0.000423038 0.0103409)
(-0.000438323 -0.000438323 0.0103813)
(-0.000642293 -0.000459554 0.0104447)
(-0.000881781 -0.000484802 0.0105307)
(0.000902074 -0.000715411 0.0105805)
(0.000669768 -0.000669768 0.010505)
(0.000459554 -0.000642293 0.0104447)
(0.000268695 -0.000623277 0.0104048)
(8.82031e-05 -0.000614424 0.0103854)
(-8.82031e-05 -0.000614424 0.0103854)
(-0.000268695 -0.000623277 0.0104048)
(-0.000459554 -0.000642293 0.0104447)
(-0.000669768 -0.000669768 0.010505)
(-0.000902074 -0.000715411 0.0105805)
(0.000981835 -0.000981835 0.0106355)
(0.000715411 -0.000902074 0.0105805)
(0.000484802 -0.000881781 0.0105307)
(0.00028443 -0.00085988 0.010495)
(9.3201e-05 -0.000850379 0.0104772)
(-9.3201e-05 -0.000850379 0.0104772)
(-0.00028443 -0.00085988 0.010495)
(-0.000484802 -0.000881781 0.0105307)
(-0.000715411 -0.000902074 0.0105805)
(-0.000981834 -0.000981834 0.0106355)
(0.000378523 0.000378523 0.0119816)
(0.00030409 0.000400849 0.0118575)
(0.000220032 0.000424797 0.0117502)
(0.000134353 0.000438186 0.0116747)
(4.47999e-05 0.000445924 0.011637)
(-4.47999e-05 0.000445924 0.011637)
(-0.000134353 0.000438186 0.0116747)
(-0.000220032 0.000424797 0.0117502)
(-0.00030409 0.00040085 0.0118575)
(-0.000378523 0.000378523 0.0119816)
(0.000400849 0.00030409 0.0118575)
(0.000325858 0.000325858 0.0116922)
(0.000239338 0.000343954 0.0115625)
(0.000146507 0.000355327 0.0114766)
(4.91917e-05 0.000361478 0.0114343)
(-4.91917e-05 0.000361478 0.0114343)
(-0.000146507 0.000355327 0.0114766)
(-0.000239338 0.000343954 0.0115625)
(-0.000325858 0.000325858 0.0116922)
(-0.000400849 0.00030409 0.0118575)
(0.000424797 0.000220032 0.0117502)
(0.000343954 0.000239338 0.0115625)
(0.000253396 0.000253396 0.0114237)
(0.000155143 0.00026212 0.011334)
(5.21897e-05 0.00026658 0.0112903)
(-5.21897e-05 0.00026658 0.0112903)
(-0.000155143 0.00026212 0.011334)
(-0.000253396 0.000253396 0.0114237)
(-0.000343954 0.000239338 0.0115625)
(-0.000424797 0.000220032 0.0117502)
(0.000438186 0.000134353 0.0116747)
(0.000355327 0.000146507 0.0114766)
(0.00026212 0.000155143 0.011334)
(0.000160553 0.000160553 0.0112431)
(5.40518e-05 0.000163269 0.011199)
(-5.40518e-05 0.000163269 0.011199)
(-0.000160553 0.000160553 0.0112431)
(-0.00026212 0.000155143 0.011334)
(-0.000355327 0.000146507 0.0114766)
(-0.000438186 0.000134353 0.0116747)
(0.000445924 4.47999e-05 0.011637)
(0.000361478 4.91917e-05 0.0114343)
(0.00026658 5.21898e-05 0.0112903)
(0.000163269 5.40518e-05 0.011199)
(5.49735e-05 5.49735e-05 0.0111548)
(-5.49734e-05 5.49735e-05 0.0111548)
(-0.000163269 5.40518e-05 0.011199)
(-0.00026658 5.21898e-05 0.0112903)
(-0.000361478 4.91918e-05 0.0114343)
(-0.000445924 4.47999e-05 0.011637)
(0.000445924 -4.47999e-05 0.011637)
(0.000361478 -4.91917e-05 0.0114343)
(0.00026658 -5.21897e-05 0.0112903)
(0.000163269 -5.40517e-05 0.011199)
(5.49735e-05 -5.49734e-05 0.0111548)
(-5.49734e-05 -5.49734e-05 0.0111548)
(-0.000163269 -5.40518e-05 0.011199)
(-0.00026658 -5.21897e-05 0.0112903)
(-0.000361478 -4.91917e-05 0.0114343)
(-0.000445924 -4.47999e-05 0.011637)
(0.000438186 -0.000134353 0.0116747)
(0.000355327 -0.000146507 0.0114766)
(0.00026212 -0.000155143 0.011334)
(0.000160553 -0.000160553 0.0112431)
(5.40518e-05 -0.000163269 0.011199)
(-5.40518e-05 -0.000163269 0.011199)
(-0.000160553 -0.000160553 0.0112431)
(-0.00026212 -0.000155143 0.011334)
(-0.000355327 -0.000146507 0.0114766)
(-0.000438186 -0.000134353 0.0116747)
(0.000424797 -0.000220032 0.0117502)
(0.000343954 -0.000239338 0.0115625)
(0.000253396 -0.000253396 0.0114237)
(0.000155143 -0.00026212 0.011334)
(5.21898e-05 -0.00026658 0.0112903)
(-5.21897e-05 -0.00026658 0.0112903)
(-0.000155143 -0.00026212 0.011334)
(-0.000253396 -0.000253396 0.0114237)
(-0.000343954 -0.000239338 0.0115625)
(-0.000424797 -0.000220033 0.0117502)
(0.000400849 -0.00030409 0.0118575)
(0.000325858 -0.000325858 0.0116922)
(0.000239338 -0.000343954 0.0115625)
(0.000146507 -0.000355327 0.0114766)
(4.91918e-05 -0.000361478 0.0114343)
(-4.91917e-05 -0.000361478 0.0114343)
(-0.000146507 -0.000355327 0.0114766)
(-0.000239338 -0.000343954 0.0115625)
(-0.000325859 -0.000325859 0.0116922)
(-0.000400849 -0.00030409 0.0118575)
(0.000378523 -0.000378523 0.0119816)
(0.00030409 -0.000400849 0.0118575)
(0.000220032 -0.000424797 0.0117502)
(0.000134353 -0.000438186 0.0116747)
(4.47999e-05 -0.000445924 0.011637)
(-4.47999e-05 -0.000445924 0.011637)
(-0.000134353 -0.000438186 0.0116747)
(-0.000220033 -0.000424797 0.0117502)
(-0.00030409 -0.000400849 0.0118575)
(-0.000378522 -0.000378522 0.0119816)
(0.000197732 0.000197732 0.0118445)
(0.000165398 0.000216829 0.0118327)
(0.000124719 0.000234251 0.0118031)
(7.7736e-05 0.000244786 0.0117778)
(2.62032e-05 0.000250433 0.0117644)
(-2.62032e-05 0.000250433 0.0117644)
(-7.77359e-05 0.000244786 0.0117778)
(-0.000124719 0.000234251 0.0118031)
(-0.000165397 0.000216829 0.0118327)
(-0.000197732 0.000197732 0.0118445)
(0.000216829 0.000165398 0.0118327)
(0.000185188 0.000185188 0.0117817)
(0.000140701 0.000199688 0.0117324)
(8.77162e-05 0.000208662 0.0116974)
(2.97004e-05 0.00021325 0.0116797)
(-2.97004e-05 0.00021325 0.0116797)
(-8.77162e-05 0.000208662 0.0116974)
(-0.000140701 0.000199688 0.0117324)
(-0.000185188 0.000185188 0.0117817)
(-0.000216829 0.000165398 0.0118327)
(0.000234251 0.000124719 0.0118031)
(0.000199688 0.000140701 0.0117324)
(0.000151617 0.000151617 0.0116736)
(9.43304e-05 0.000158183 0.0116336)
(3.195e-05 0.0001614 0.0116135)
(-3.195e-05 0.0001614 0.0116135)
(-9.43304e-05 0.000158183 0.0116336)
(-0.000151617 0.000151617 0.0116736)
(-0.000199688 0.000140701 0.0117324)
(-0.000234251 0.000124719 0.0118031)
(0.000244786 7.7736e-05 0.0117778)
(0.000208662 8.77162e-05 0.0116974)
(0.000158183 9.43304e-05 0.0116336)
(9.82634e-05 9.82634e-05 0.0115907)
(3.32756e-05 0.000100165 0.0115692)
(-3.32755e-05 0.000100165 0.0115692)
(-9.82634e-05 9.82634e-05 0.0115907)
(-0.000158183 9.43304e-05 0.0116336)
(-0.000208662 8.77162e-05 0.0116974)
(-0.000244786 7.77359e-05 0.0117778)
(0.000250433 2.62032e-05 0.0117644)
(0.00021325 2.97004e-05 0.0116797)
(0.0001614 3.195e-05 0.0116135)
(0.000100165 3.32756e-05 0.0115692)
(3.39123e-05 3.39123e-05 0.0115471)
(-3.39123e-05 3.39123e-05 0.0115471)
(-0.000100165 3.32756e-05 0.0115692)
(-0.0001614 3.195e-05 0.0116135)
(-0.00021325 2.97005e-05 0.0116797)
(-0.000250433 2.62032e-05 0.0117644)
(0.000250433 -2.62032e-05 0.0117644)
(0.00021325 -2.97004e-05 0.0116797)
(0.0001614 -3.195e-05 0.0116135)
(0.000100165 -3.32755e-05 0.0115692)
(3.39123e-05 -3.39123e-05 0.0115471)
(-3.39123e-05 -3.39123e-05 0.0115471)
(-0.000100165 -3.32755e-05 0.0115692)
(-0.0001614 -3.195e-05 0.0116135)
(-0.00021325 -2.97004e-05 0.0116797)
(-0.000250433 -2.62032e-05 0.0117644)
(0.000244786 -7.7736e-05 0.0117778)
(0.000208662 -8.77162e-05 0.0116974)
(0.000158183 -9.43304e-05 0.0116336)
(9.82634e-05 -9.82634e-05 0.0115907)
(3.32755e-05 -0.000100165 0.0115692)
(-3.32756e-05 -0.000100165 0.0115692)
(-9.82634e-05 -9.82634e-05 0.0115907)
(-0.000158183 -9.43304e-05 0.0116336)
(-0.000208662 -8.77162e-05 0.0116974)
(-0.000244786 -7.7736e-05 0.0117778)
(0.000234251 -0.000124719 0.0118031)
(0.000199688 -0.000140701 0.0117324)
(0.000151617 -0.000151617 0.0116736)
(9.43304e-05 -0.000158183 0.0116336)
(3.195e-05 -0.0001614 0.0116135)
(-3.195e-05 -0.0001614 0.0116135)
(-9.43304e-05 -0.000158183 0.0116336)
(-0.000151617 -0.000151617 0.0116736)
(-0.000199688 -0.000140701 0.0117324)
(-0.000234251 -0.000124719 0.0118031)
(0.000216829 -0.000165397 0.0118327)
(0.000185188 -0.000185188 0.0117817)
(0.000140701 -0.000199688 0.0117324)
(8.77162e-05 -0.000208662 0.0116974)
(2.97004e-05 -0.00021325 0.0116797)
(-2.97004e-05 -0.00021325 0.0116797)
(-8.77162e-05 -0.000208662 0.0116974)
(-0.000140701 -0.000199688 0.0117324)
(-0.000185188 -0.000185188 0.0117817)
(-0.000216829 -0.000165398 0.0118327)
(0.000197732 -0.000197732 0.0118445)
(0.000165397 -0.000216829 0.0118327)
(0.000124719 -0.000234251 0.0118031)
(7.7736e-05 -0.000244786 0.0117778)
(2.62032e-05 -0.000250433 0.0117644)
(-2.62032e-05 -0.000250433 0.0117644)
(-7.7736e-05 -0.000244786 0.0117778)
(-0.000124719 -0.000234251 0.0118031)
(-0.000165398 -0.000216829 0.0118327)
(-0.000197732 -0.000197732 0.0118445)
(6.60138e-05 6.60138e-05 0.0118849)
(5.8719e-05 7.92516e-05 0.0119037)
(4.67447e-05 9.03333e-05 0.0118968)
(3.00111e-05 9.75929e-05 0.0118866)
(1.0259e-05 0.000101421 0.0118807)
(-1.0259e-05 0.000101421 0.0118807)
(-3.00111e-05 9.7593e-05 0.0118866)
(-4.67447e-05 9.03333e-05 0.0118968)
(-5.8719e-05 7.92516e-05 0.0119037)
(-6.60138e-05 6.60138e-05 0.0118849)
(7.92516e-05 5.8719e-05 0.0119037)
(7.22059e-05 7.22059e-05 0.0118892)
(5.76113e-05 8.24862e-05 0.0118666)
(3.69939e-05 8.92505e-05 0.0118491)
(1.27063e-05 9.27275e-05 0.0118399)
(-1.27063e-05 9.27275e-05 0.0118399)
(-3.69939e-05 8.92505e-05 0.0118491)
(-5.76113e-05 8.24862e-05 0.0118666)
(-7.22059e-05 7.22059e-05 0.0118892)
(-7.92516e-05 5.8719e-05 0.0119037)
(9.03333e-05 4.67447e-05 0.0118968)
(8.24862e-05 5.76113e-05 0.0118666)
(6.57333e-05 6.57333e-05 0.011837)
(4.21247e-05 7.10115e-05 0.0118159)
(1.44737e-05 7.36661e-05 0.0118052)
(-1.44736e-05 7.36662e-05 0.0118052)
(-4.21247e-05 7.10116e-05 0.0118159)
(-6.57333e-05 6.57333e-05 0.011837)
(-8.24862e-05 5.76113e-05 0.0118666)
(-9.03332e-05 4.67447e-05 0.0118968)
(9.75929e-05 3.00111e-05 0.0118866)
(8.92505e-05 3.69939e-05 0.0118491)
(7.10115e-05 4.21247e-05 0.0118159)
(4.54446e-05 4.54446e-05 0.0117929)
(1.5612e-05 4.71022e-05 0.0117811)
(-1.5612e-05 4.71022e-05 0.0117811)
(-4.54446e-05 4.54447e-05 0.0117929)
(-7.10115e-05 4.21247e-05 0.0118159)
(-8.92505e-05 3.69939e-05 0.0118491)
(-9.75929e-05 3.00111e-05 0.0118866)
(0.000101421 1.0259e-05 0.0118807)
(9.27275e-05 1.27063e-05 0.0118399)
(7.36661e-05 1.44737e-05 0.0118052)
(4.71022e-05 1.5612e-05 0.0117811)
(1.61777e-05 1.61777e-05 0.0117689)
(-1.61777e-05 1.61777e-05 0.0117689)
(-4.71021e-05 1.5612e-05 0.0117811)
(-7.36661e-05 1.44737e-05 0.0118052)
(-9.27275e-05 1.27064e-05 0.0118399)
(-0.000101421 1.0259e-05 0.0118807)
(0.000101421 -1.0259e-05 0.0118807)
(9.27275e-05 -1.27063e-05 0.0118399)
(7.36662e-05 -1.44736e-05 0.0118052)
(4.71022e-05 -1.5612e-05 0.0117811)
(1.61777e-05 -1.61777e-05 0.0117689)
(-1.61777e-05 -1.61777e-05 0.0117689)
(-4.71021e-05 -1.5612e-05 0.0117811)
(-7.36661e-05 -1.44736e-05 0.0118052)
(-9.27275e-05 -1.27063e-05 0.0118399)
(-0.000101421 -1.0259e-05 0.0118807)
(9.75929e-05 -3.00111e-05 0.0118866)
(8.92505e-05 -3.69939e-05 0.0118491)
(7.10116e-05 -4.21247e-05 0.0118159)
(4.54447e-05 -4.54446e-05 0.0117929)
(1.5612e-05 -4.71021e-05 0.0117811)
(-1.5612e-05 -4.71021e-05 0.0117811)
(-4.54446e-05 -4.54446e-05 0.0117929)
(-7.10115e-05 -4.21247e-05 0.0118159)
(-8.92505e-05 -3.69939e-05 0.0118491)
(-9.75929e-05 -3.00111e-05 0.0118866)
(9.03333e-05 -4.67447e-05 0.0118968)
(8.24862e-05 -5.76113e-05 0.0118666)
(6.57333e-05 -6.57333e-05 0.011837)
(4.21247e-05 -7.10115e-05 0.0118159)
(1.44737e-05 -7.36661e-05 0.0118052)
(-1.44736e-05 -7.36661e-05 0.0118052)
(-4.21247e-05 -7.10115e-05 0.0118159)
(-6.57333e-05 -6.57333e-05 0.011837)
(-8.24862e-05 -5.76113e-05 0.0118666)
(-9.03333e-05 -4.67448e-05 0.0118968)
(7.92516e-05 -5.8719e-05 0.0119037)
(7.22059e-05 -7.22059e-05 0.0118892)
(5.76113e-05 -8.24862e-05 0.0118666)
(3.69939e-05 -8.92505e-05 0.0118491)
(1.27064e-05 -9.27275e-05 0.0118399)
(-1.27063e-05 -9.27275e-05 0.0118399)
(-3.69939e-05 -8.92505e-05 0.0118491)
(-5.76113e-05 -8.24862e-05 0.0118666)
(-7.2206e-05 -7.2206e-05 0.0118892)
(-7.92516e-05 -5.8719e-05 0.0119037)
(6.60138e-05 -6.60138e-05 0.0118849)
(5.8719e-05 -7.92516e-05 0.0119037)
(4.67447e-05 -9.03332e-05 0.0118968)
(3.00111e-05 -9.75929e-05 0.0118866)
(1.0259e-05 -0.000101421 0.0118807)
(-1.0259e-05 -0.000101421 0.0118807)
(-3.00111e-05 -9.7593e-05 0.0118866)
(-4.67448e-05 -9.03333e-05 0.0118968)
(-5.8719e-05 -7.92516e-05 0.0119037)
(-6.60137e-05 -6.60137e-05 0.0118849)
(2.16296e-05 2.16296e-05 0.0118737)
(1.96817e-05 2.68598e-05 0.0119089)
(1.60822e-05 3.13514e-05 0.0119152)
(1.04554e-05 3.44618e-05 0.0119142)
(3.59688e-06 3.61298e-05 0.0119129)
(-3.5969e-06 3.61298e-05 0.0119129)
(-1.04554e-05 3.44618e-05 0.0119142)
(-1.60822e-05 3.13514e-05 0.0119152)
(-1.96817e-05 2.68599e-05 0.0119089)
(-2.16295e-05 2.16296e-05 0.0118737)
(2.68598e-05 1.96817e-05 0.0119089)
(2.5381e-05 2.5381e-05 0.011915)
(2.08281e-05 2.99366e-05 0.0119087)
(1.36054e-05 3.30932e-05 0.0119023)
(4.7134e-06 3.4752e-05 0.0118987)
(-4.7134e-06 3.4752e-05 0.0118987)
(-1.36054e-05 3.30932e-05 0.0119023)
(-2.08281e-05 2.99366e-05 0.0119087)
(-2.5381e-05 2.5381e-05 0.011915)
(-2.68599e-05 1.96817e-05 0.0119089)
(3.13514e-05 1.60822e-05 0.0119152)
(2.99366e-05 2.08281e-05 0.0119087)
(2.46363e-05 2.46363e-05 0.0118974)
(1.61093e-05 2.72598e-05 0.0118886)
(5.59061e-06 2.86182e-05 0.0118839)
(-5.5906e-06 2.86182e-05 0.0118839)
(-1.61093e-05 2.72599e-05 0.0118886)
(-2.46363e-05 2.46363e-05 0.0118974)
(-2.99366e-05 2.08281e-05 0.0119087)
(-3.13514e-05 1.60822e-05 0.0119152)
(3.44618e-05 1.04554e-05 0.0119142)
(3.30932e-05 1.36054e-05 0.0119023)
(2.72598e-05 1.61093e-05 0.0118886)
(1.78327e-05 1.78327e-05 0.0118784)
(6.19311e-06 1.87211e-05 0.0118731)
(-6.19308e-06 1.87211e-05 0.0118731)
(-1.78327e-05 1.78327e-05 0.0118784)
(-2.72598e-05 1.61093e-05 0.0118886)
(-3.30932e-05 1.36054e-05 0.0119023)
(-3.44618e-05 1.04554e-05 0.0119142)
(3.61298e-05 3.59688e-06 0.0119129)
(3.4752e-05 4.71341e-06 0.0118987)
(2.86182e-05 5.59062e-06 0.0118839)
(1.87211e-05 6.19311e-06 0.0118731)
(6.50265e-06 6.50266e-06 0.0118674)
(-6.50263e-06 6.50265e-06 0.0118674)
(-1.87211e-05 6.1931e-06 0.0118731)
(-2.86182e-05 5.59061e-06 0.0118839)
(-3.4752e-05 4.71341e-06 0.0118987)
(-3.61298e-05 3.59691e-06 0.0119129)
(3.61298e-05 -3.5969e-06 0.0119129)
(3.4752e-05 -4.71338e-06 0.0118987)
(2.86182e-05 -5.59058e-06 0.0118839)
(1.87211e-05 -6.19307e-06 0.0118731)
(6.50265e-06 -6.50262e-06 0.0118674)
(-6.50264e-06 -6.50263e-06 0.0118674)
(-1.87211e-05 -6.19309e-06 0.0118731)
(-2.86182e-05 -5.5906e-06 0.0118839)
(-3.4752e-05 -4.7134e-06 0.0118987)
(-3.61298e-05 -3.59689e-06 0.0119129)
(3.44618e-05 -1.04554e-05 0.0119142)
(3.30932e-05 -1.36053e-05 0.0119023)
(2.72598e-05 -1.61092e-05 0.0118886)
(1.78327e-05 -1.78326e-05 0.0118784)
(6.19309e-06 -1.87211e-05 0.0118731)
(-6.1931e-06 -1.87211e-05 0.0118731)
(-1.78327e-05 -1.78327e-05 0.0118784)
(-2.72598e-05 -1.61093e-05 0.0118886)
(-3.30931e-05 -1.36054e-05 0.0119023)
(-3.44618e-05 -1.04554e-05 0.0119142)
(3.13515e-05 -1.60822e-05 0.0119152)
(2.99367e-05 -2.08281e-05 0.0119087)
(2.46363e-05 -2.46363e-05 0.0118974)
(1.61093e-05 -2.72598e-05 0.0118886)
(5.5906e-06 -2.86182e-05 0.0118839)
(-5.59061e-06 -2.86182e-05 0.0118839)
(-1.61093e-05 -2.72598e-05 0.0118886)
(-2.46363e-05 -2.46363e-05 0.0118974)
(-2.99366e-05 -2.08281e-05 0.0119087)
(-3.13514e-05 -1.60822e-05 0.0119152)
(2.68599e-05 -1.96817e-05 0.0119089)
(2.5381e-05 -2.53811e-05 0.011915)
(2.08281e-05 -2.99367e-05 0.0119087)
(1.36054e-05 -3.30932e-05 0.0119023)
(4.7134e-06 -3.4752e-05 0.0118987)
(-4.7134e-06 -3.4752e-05 0.0118987)
(-1.36054e-05 -3.30931e-05 0.0119023)
(-2.08281e-05 -2.99366e-05 0.0119087)
(-2.53811e-05 -2.53811e-05 0.011915)
(-2.68598e-05 -1.96817e-05 0.0119089)
(2.16296e-05 -2.16296e-05 0.0118737)
(1.96817e-05 -2.68599e-05 0.0119089)
(1.60822e-05 -3.13514e-05 0.0119152)
(1.04555e-05 -3.44618e-05 0.0119142)
(3.59692e-06 -3.61298e-05 0.0119129)
(-3.59689e-06 -3.61298e-05 0.0119129)
(-1.04555e-05 -3.44618e-05 0.0119142)
(-1.60823e-05 -3.13514e-05 0.0119152)
(-1.96817e-05 -2.68598e-05 0.0119089)
(-2.16295e-05 -2.16295e-05 0.0118737)
(7.46852e-06 7.46852e-06 0.0118641)
(6.90688e-06 9.43056e-06 0.0119042)
(5.74828e-06 1.11291e-05 0.0119151)
(3.76896e-06 1.23296e-05 0.0119174)
(1.3029e-06 1.29743e-05 0.0119178)
(-1.30291e-06 1.29743e-05 0.0119178)
(-3.76894e-06 1.23296e-05 0.0119174)
(-5.74825e-06 1.11291e-05 0.0119151)
(-6.90686e-06 9.43058e-06 0.0119042)
(-7.46851e-06 7.46854e-06 0.0118641)
(9.43057e-06 6.90688e-06 0.0119042)
(9.11806e-06 9.11805e-06 0.0119179)
(7.61422e-06 1.0915e-05 0.0119179)
(5.02463e-06 1.21882e-05 0.0119161)
(1.74979e-06 1.28631e-05 0.0119149)
(-1.74979e-06 1.28631e-05 0.0119149)
(-5.02462e-06 1.21883e-05 0.0119161)
(-7.6142e-06 1.0915e-05 0.0119179)
(-9.11803e-06 9.11805e-06 0.0119179)
(-9.43055e-06 6.90688e-06 0.0119042)
(1.11291e-05 5.74828e-06 0.0119151)
(1.0915e-05 7.61421e-06 0.0119179)
(9.15481e-06 9.1548e-06 0.0119145)
(6.05727e-06 1.0245e-05 0.0119113)
(2.11452e-06 1.08172e-05 0.0119096)
(-2.1145e-06 1.08172e-05 0.0119096)
(-6.05725e-06 1.0245e-05 0.0119113)
(-9.1548e-06 9.15482e-06 0.0119145)
(-1.0915e-05 7.61422e-06 0.0119179)
(-1.11291e-05 5.74826e-06 0.0119151)
(1.23296e-05 3.76897e-06 0.0119174)
(1.21882e-05 5.02464e-06 0.0119161)
(1.0245e-05 6.05727e-06 0.0119113)
(6.78887e-06 6.78887e-06 0.0119074)
(2.37284e-06 7.17208e-06 0.0119054)
(-2.3728e-06 7.17208e-06 0.0119054)
(-6.78885e-06 6.78887e-06 0.0119074)
(-1.0245e-05 6.05727e-06 0.0119113)
(-1.21882e-05 5.02464e-06 0.0119161)
(-1.23296e-05 3.76896e-06 0.0119174)
(1.29743e-05 1.3029e-06 0.0119178)
(1.2863e-05 1.74979e-06 0.0119149)
(1.08172e-05 2.11452e-06 0.0119096)
(7.17208e-06 2.37283e-06 0.0119054)
(2.50787e-06 2.50787e-06 0.0119031)
(-2.50784e-06 2.50787e-06 0.0119031)
(-7.17205e-06 2.37283e-06 0.0119054)
(-1.08172e-05 2.11453e-06 0.0119096)
(-1.2863e-05 1.74981e-06 0.0119149)
(-1.29743e-05 1.30292e-06 0.0119178)
(1.29743e-05 -1.30293e-06 0.0119178)
(1.28631e-05 -1.74979e-06 0.0119149)
(1.08172e-05 -2.11451e-06 0.0119096)
(7.17208e-06 -2.3728e-06 0.0119054)
(2.50787e-06 -2.50784e-06 0.0119031)
(-2.50784e-06 -2.50784e-06 0.0119031)
(-7.17205e-06 -2.37281e-06 0.0119054)
(-1.08172e-05 -2.1145e-06 0.0119096)
(-1.2863e-05 -1.74978e-06 0.0119149)
(-1.29743e-05 -1.30292e-06 0.0119178)
(1.23296e-05 -3.76894e-06 0.0119174)
(1.21883e-05 -5.02461e-06 0.0119161)
(1.0245e-05 -6.05724e-06 0.0119113)
(6.78888e-06 -6.78884e-06 0.0119074)
(2.37283e-06 -7.17205e-06 0.0119054)
(-2.37281e-06 -7.17205e-06 0.0119054)
(-6.78885e-06 -6.78884e-06 0.0119074)
(-1.0245e-05 -6.05723e-06 0.0119113)
(-1.21882e-05 -5.02463e-06 0.0119161)
(-1.23296e-05 -3.76898e-06 0.0119174)
(1.11291e-05 -5.74822e-06 0.0119151)
(1.0915e-05 -7.61418e-06 0.0119179)
(9.15481e-06 -9.15477e-06 0.0119145)
(6.05727e-06 -1.0245e-05 0.0119113)
(2.11453e-06 -1.08172e-05 0.0119096)
(-2.1145e-06 -1.08172e-05 0.0119096)
(-6.05724e-06 -1.0245e-05 0.0119113)
(-9.15481e-06 -9.1548e-06 0.0119145)
(-1.0915e-05 -7.61426e-06 0.0119179)
(-1.11291e-05 -5.74827e-06 0.0119151)
(9.4306e-06 -6.90686e-06 0.0119042)
(9.11805e-06 -9.11802e-06 0.0119179)
(7.61421e-06 -1.0915e-05 0.0119179)
(5.02462e-06 -1.21882e-05 0.0119161)
(1.7498e-06 -1.2863e-05 0.0119149)
(-1.74977e-06 -1.2863e-05 0.0119149)
(-5.02463e-06 -1.21882e-05 0.0119161)
(-7.61427e-06 -1.0915e-05 0.0119179)
(-9.11807e-06 -9.11807e-06 0.0119179)
(-9.43054e-06 -6.90686e-06 0.0119042)
(7.46857e-06 -7.46852e-06 0.0118641)
(6.90689e-06 -9.43056e-06 0.0119042)
(5.74826e-06 -1.11291e-05 0.0119151)
(3.76895e-06 -1.23295e-05 0.0119174)
(1.30292e-06 -1.29743e-05 0.0119178)
(-1.30292e-06 -1.29743e-05 0.0119178)
(-3.76899e-06 -1.23296e-05 0.0119174)
(-5.74829e-06 -1.11291e-05 0.0119151)
(-6.90687e-06 -9.43054e-06 0.0119042)
(-7.46852e-06 -7.46849e-06 0.0118641)
(2.51847e-06 2.51846e-06 0.0118611)
(2.3712e-06 3.26296e-06 0.0119026)
(2.00894e-06 3.90764e-06 0.0119149)
(1.32923e-06 4.37207e-06 0.0119183)
(4.61903e-07 4.62173e-06 0.0119192)
(-4.61922e-07 4.62174e-06 0.0119192)
(-1.32924e-06 4.37209e-06 0.0119183)
(-2.00894e-06 3.90771e-06 0.0119149)
(-2.37119e-06 3.26306e-06 0.0119026)
(-2.51845e-06 2.51851e-06 0.0118611)
(3.26295e-06 2.37121e-06 0.0119026)
(3.22093e-06 3.22093e-06 0.0119187)
(2.73485e-06 3.92424e-06 0.0119209)
(1.82298e-06 4.4315e-06 0.0119207)
(6.38141e-07 4.70189e-06 0.0119204)
(-6.38119e-07 4.7019e-06 0.0119204)
(-1.82293e-06 4.43153e-06 0.0119207)
(-2.73481e-06 3.92432e-06 0.0119209)
(-3.22098e-06 3.22104e-06 0.0119187)
(-3.26301e-06 2.37124e-06 0.0119026)
(3.90761e-06 2.00894e-06 0.0119149)
(3.92422e-06 2.73485e-06 0.0119209)
(3.34901e-06 3.349e-06 0.0119203)
(2.23994e-06 3.79203e-06 0.0119192)
(7.86163e-07 4.02654e-06 0.0119186)
(-7.86131e-07 4.02655e-06 0.0119186)
(-2.23989e-06 3.79204e-06 0.0119192)
(-3.34894e-06 3.34899e-06 0.0119203)
(-3.92427e-06 2.73485e-06 0.0119209)
(-3.90769e-06 2.00895e-06 0.0119149)
(4.37204e-06 1.32923e-06 0.0119183)
(4.43149e-06 1.82301e-06 0.0119207)
(3.79204e-06 2.23995e-06 0.0119192)
(2.54122e-06 2.54123e-06 0.0119178)
(8.93139e-07 2.70053e-06 0.011917)
(-8.93108e-07 2.70053e-06 0.011917)
(-2.54119e-06 2.54123e-06 0.0119178)
(-3.79199e-06 2.23992e-06 0.0119192)
(-4.4315e-06 1.82296e-06 0.0119207)
(-4.37209e-06 1.32926e-06 0.0119183)
(4.62173e-06 4.61898e-07 0.0119192)
(4.70188e-06 6.38155e-07 0.0119204)
(4.02654e-06 7.86169e-07 0.0119186)
(2.70052e-06 8.93146e-07 0.011917)
(9.49625e-07 9.49632e-07 0.0119161)
(-9.49597e-07 9.49629e-07 0.0119161)
(-2.7005e-06 8.93136e-07 0.011917)
(-4.02651e-06 7.86153e-07 0.0119186)
(-4.70187e-06 6.38129e-07 0.0119204)
(-4.62174e-06 4.61929e-07 0.0119192)
(4.62173e-06 -4.61933e-07 0.0119192)
(4.7019e-06 -6.38121e-07 0.0119204)
(4.02655e-06 -7.86129e-07 0.0119186)
(2.70053e-06 -8.93105e-07 0.011917)
(9.49622e-07 -9.49594e-07 0.0119161)
(-9.49604e-07 -9.49599e-07 0.0119161)
(-2.7005e-06 -8.93118e-07 0.011917)
(-4.02651e-06 -7.86144e-07 0.0119186)
(-4.70186e-06 -6.38137e-07 0.0119204)
(-4.62174e-06 -4.61918e-07 0.0119192)
(4.37209e-06 -1.32924e-06 0.0119183)
(4.43154e-06 -1.82293e-06 0.0119207)
(3.79203e-06 -2.23989e-06 0.0119192)
(2.54122e-06 -2.54119e-06 0.0119178)
(8.93132e-07 -2.7005e-06 0.011917)
(-8.93122e-07 -2.7005e-06 0.011917)
(-2.5412e-06 -2.5412e-06 0.0119178)
(-3.79201e-06 -2.23992e-06 0.0119192)
(-4.43149e-06 -1.82298e-06 0.0119207)
(-4.37207e-06 -1.32926e-06 0.0119183)
(3.90772e-06 -2.00893e-06 0.0119149)
(3.92431e-06 -2.73482e-06 0.0119209)
(3.34898e-06 -3.34896e-06 0.0119203)
(2.23992e-06 -3.792e-06 0.0119192)
(7.86158e-07 -4.02651e-06 0.0119186)
(-7.8615e-07 -4.02651e-06 0.0119186)
(-2.23992e-06 -3.79202e-06 0.0119192)
(-3.34899e-06 -3.34899e-06 0.0119203)
(-3.92426e-06 -2.73487e-06 0.0119209)
(-3.90765e-06 -2.00895e-06 0.0119149)
(3.26305e-06 -2.3712e-06 0.0119026)
(3.22102e-06 -3.22102e-06 0.0119187)
(2.73485e-06 -3.9243e-06 0.0119209)
(1.82297e-06 -4.4315e-06 0.0119207)
(6.38133e-07 -4.70186e-06 0.0119204)
(-6.38153e-07 -4.70186e-06 0.0119204)
(-1.82298e-06 -4.43149e-06 0.0119207)
(-2.73486e-06 -3.92424e-06 0.0119209)
(-3.22096e-06 -3.22096e-06 0.0119187)
(-3.26297e-06 -2.37121e-06 0.0119026)
(2.51849e-06 -2.51845e-06 0.0118611)
(2.37121e-06 -3.263e-06 0.0119026)
(2.00898e-06 -3.90767e-06 0.0119149)
(1.32929e-06 -4.37208e-06 0.0119183)
(4.61931e-07 -4.62174e-06 0.0119192)
(-4.61922e-07 -4.62173e-06 0.0119192)
(-1.32924e-06 -4.37206e-06 0.0119183)
(-2.00895e-06 -3.90764e-06 0.0119149)
(-2.37123e-06 -3.26297e-06 0.0119026)
(-2.51846e-06 -2.51846e-06 0.0118611)
(8.54393e-07 8.54386e-07 0.01186)
(8.12538e-07 1.12401e-06 0.0119021)
(6.95202e-07 1.3584e-06 0.0119148)
(4.62184e-07 1.53051e-06 0.0119186)
(1.61074e-07 1.62335e-06 0.0119197)
(-1.61088e-07 1.62335e-06 0.0119197)
(-4.62159e-07 1.53049e-06 0.0119186)
(-6.95165e-07 1.35838e-06 0.0119148)
(-8.12501e-07 1.12399e-06 0.0119021)
(-8.54365e-07 8.54417e-07 0.01186)
(1.124e-06 8.12517e-07 0.0119021)
(1.12421e-06 1.1242e-06 0.011919)
(9.65055e-07 1.38692e-06 0.011922)
(6.47648e-07 1.57965e-06 0.0119224)
(2.27522e-07 1.68315e-06 0.0119224)
(-2.27533e-07 1.68315e-06 0.0119224)
(-6.4766e-07 1.57965e-06 0.0119224)
(-9.6504e-07 1.3869e-06 0.011922)
(-1.12415e-06 1.12419e-06 0.011919)
(-1.12396e-06 8.12522e-07 0.0119021)
(1.35839e-06 6.95193e-07 0.0119148)
(1.38693e-06 9.65057e-07 0.011922)
(1.19869e-06 1.19869e-06 0.0119224)
(8.08273e-07 1.37035e-06 0.0119221)
(2.84862e-07 1.46208e-06 0.0119219)
(-2.84859e-07 1.46209e-06 0.0119219)
(-8.08276e-07 1.37037e-06 0.0119221)
(-1.19868e-06 1.19871e-06 0.0119224)
(-1.38689e-06 9.65064e-07 0.011922)
(-1.35837e-06 6.95186e-07 0.0119148)
(1.53052e-06 4.62192e-07 0.0119186)
(1.57966e-06 6.47655e-07 0.0119224)
(1.37035e-06 8.0827e-07 0.0119221)
(9.26591e-07 9.26591e-07 0.0119216)
(3.27131e-07 9.89792e-07 0.0119213)
(-3.27117e-07 9.89795e-07 0.0119213)
(-9.26589e-07 9.26609e-07 0.0119216)
(-1.37034e-06 8.08295e-07 0.0119221)
(-1.57963e-06 6.47668e-07 0.0119224)
(-1.53049e-06 4.6219e-07 0.0119186)
(1.62336e-06 1.6108e-07 0.0119197)
(1.68315e-06 2.27514e-07 0.0119224)
(1.46208e-06 2.84853e-07 0.0119219)
(9.89793e-07 3.27128e-07 0.0119213)
(3.4969e-07 3.49688e-07 0.011921)
(-3.49664e-07 3.49692e-07 0.011921)
(-9.89775e-07 3.27145e-07 0.0119213)
(-1.46206e-06 2.84884e-07 0.0119219)
(-1.68312e-06 2.27539e-07 0.0119224)
(-1.62335e-06 1.61084e-07 0.0119197)
(1.62335e-06 -1.61094e-07 0.0119197)
(1.68315e-06 -2.27532e-07 0.0119224)
(1.46209e-06 -2.84859e-07 0.0119219)
(9.89802e-07 -3.27115e-07 0.0119213)
(3.49695e-07 -3.4966e-07 0.011921)
(-3.4966e-07 -3.49658e-07 0.011921)
(-9.89772e-07 -3.27108e-07 0.0119213)
(-1.46207e-06 -2.84849e-07 0.0119219)
(-1.68314e-06 -2.2753e-07 0.0119224)
(-1.62335e-06 -1.61094e-07 0.0119197)
(1.53051e-06 -4.6217e-07 0.0119186)
(1.57966e-06 -6.47645e-07 0.0119224)
(1.37037e-06 -8.08267e-07 0.0119221)
(9.26615e-07 -9.26578e-07 0.0119216)
(3.27146e-07 -9.89765e-07 0.0119213)
(-3.27112e-07 -9.89769e-07 0.0119213)
(-9.26588e-07 -9.26585e-07 0.0119216)
(-1.37036e-06 -8.08271e-07 0.0119221)
(-1.57964e-06 -6.47651e-07 0.0119224)
(-1.5305e-06 -4.6217e-07 0.0119186)
(1.35839e-06 -6.95161e-07 0.0119148)
(1.38692e-06 -9.65041e-07 0.011922)
(1.1987e-06 -1.19868e-06 0.0119224)
(8.08303e-07 -1.37033e-06 0.0119221)
(2.8488e-07 -1.46206e-06 0.0119219)
(-2.84857e-07 -1.46207e-06 0.0119219)
(-8.08274e-07 -1.37035e-06 0.0119221)
(-1.19869e-06 -1.19868e-06 0.0119224)
(-1.3869e-06 -9.6504e-07 0.011922)
(-1.3584e-06 -6.95186e-07 0.0119148)
(1.12399e-06 -8.12484e-07 0.0119021)
(1.12418e-06 -1.12414e-06 0.011919)
(9.65071e-07 -1.38686e-06 0.011922)
(6.47679e-07 -1.57961e-06 0.0119224)
(2.27535e-07 -1.68312e-06 0.0119224)
(-2.27532e-07 -1.68313e-06 0.0119224)
(-6.4765e-07 -1.57963e-06 0.0119224)
(-9.65048e-07 -1.3869e-06 0.011922)
(-1.1242e-06 -1.1242e-06 0.011919)
(-1.12402e-06 -8.12558e-07 0.0119021)
(8.54401e-07 -8.54347e-07 0.01186)
(8.12534e-07 -1.12393e-06 0.0119021)
(6.95193e-07 -1.35834e-06 0.0119148)
(4.62174e-07 -1.53048e-06 0.0119186)
(1.61074e-07 -1.62335e-06 0.0119197)