/*--------------------------------*- C++ -*----------------------------------*\
| =========                 |                                                 |
| \\      /  F ield         | OpenFOAM: The Open Source CFD Toolbox           |
|  \\    /   O peration     | Version:  2412                                  |
|   \\  /    A nd           | Website:  www.openfoam.com                      |
|    \\/     M anipulation  |                                                 |
\*---------------------------------------------------------------------------*/
FoamFile
{
    version     2.0;
    format      ascii;
    arch        "LSB;label=32;scalar=64";
    class       surfaceScalarField;
    location    "1.3";
    object      phi;
}
// * * * * * * * * * * * * * * * * * * * * * * * * * * * * * * * * * * * * * //

dimensions      [0 3 -1 0 0 0 0];

oriented        oriented;

internalField   nonuniform List<scalar> 
43700
(
1.14663e-07
1.14663e-07
5.22243e-07
-1.40775e-07
-1.40775e-07
8.32257e-08
9.91342e-08
5.61409e-07
-1.19722e-07
5.50199e-08
9.11797e-08
5.9089e-07
-1.14433e-07
2.72671e-08
8.57422e-08
6.10578e-07
-1.08855e-07
-6.33996e-15
8.32184e-08
6.20458e-07
-1.06481e-07
-2.72671e-08
8.32184e-08
6.20458e-07
-1.06481e-07
-5.50199e-08
8.57422e-08
6.10578e-07
-1.08855e-07
-8.32257e-08
9.11797e-08
5.9089e-07
-1.14433e-07
-1.14663e-07
9.91342e-08
5.61409e-07
-1.19722e-07
1.14663e-07
5.22243e-07
-1.40776e-07
-1.40776e-07
9.91342e-08
8.32257e-08
5.61409e-07
-1.19722e-07
7.4012e-08
7.4012e-08
5.96088e-07
4.91096e-08
6.7613e-08
6.2216e-07
2.44229e-08
6.33087e-08
6.39617e-07
-3.18486e-16
6.12331e-08
6.4838e-07
-2.44229e-08
6.12331e-08
6.4838e-07
-4.91096e-08
6.33087e-08
6.39617e-07
-7.4012e-08
6.7613e-08
6.2216e-07
-9.91342e-08
7.4012e-08
5.96088e-07
8.32257e-08
5.61409e-07
-1.19722e-07
9.11798e-08
5.50199e-08
5.9089e-07
-1.14433e-07
6.7613e-08
4.91096e-08
6.2216e-07
4.46548e-08
4.46548e-08
6.4579e-07
2.21753e-08
4.16829e-08
6.61668e-07
7.56024e-16
4.02353e-08
6.69651e-07
-2.21753e-08
4.02353e-08
6.69651e-07
-4.46548e-08
4.16829e-08
6.61668e-07
-6.7613e-08
4.46548e-08
6.4579e-07
-9.11797e-08
4.91096e-08
6.2216e-07
5.50199e-08
5.9089e-07
-1.14433e-07
8.57422e-08
2.72671e-08
6.10578e-07
-1.08855e-07
6.33087e-08
2.44229e-08
6.39617e-07
4.16829e-08
2.21753e-08
6.61668e-07
2.06688e-08
2.06688e-08
6.76531e-07
6.66184e-16
1.99311e-08
6.84015e-07
-2.06688e-08
1.99311e-08
6.84015e-07
-4.16829e-08
2.06688e-08
6.76531e-07
-6.33087e-08
2.21754e-08
6.61668e-07
-8.57422e-08
2.44229e-08
6.39617e-07
2.72671e-08
6.10578e-07
-1.08855e-07
8.32184e-08
-4.65342e-15
6.20458e-07
-1.06481e-07
6.12331e-08
-6.31089e-15
6.4838e-07
4.02353e-08
-2.66748e-15
6.69651e-07
1.99311e-08
3.09638e-15
6.84015e-07
2.68884e-15
3.56539e-15
6.91255e-07
-1.99311e-08
3.61527e-15
6.91255e-07
-4.02353e-08
4.50348e-15
6.84015e-07
-6.12331e-08
8.88045e-15
6.69651e-07
-8.32184e-08
8.73422e-15
6.4838e-07
3.14772e-16
6.20458e-07
-1.06481e-07
8.32183e-08
-2.72671e-08
6.20458e-07
-1.06481e-07
6.12331e-08
-2.44229e-08
6.4838e-07
4.02353e-08
-2.21753e-08
6.69651e-07
1.99311e-08
-2.06688e-08
6.84015e-07
2.66124e-15
-1.99311e-08
6.91255e-07
-1.99311e-08
-1.99311e-08
6.91255e-07
-4.02353e-08
-2.06688e-08
6.84015e-07
-6.12331e-08
-2.21753e-08
6.69651e-07
-8.32184e-08
-2.44229e-08
6.4838e-07
-2.72671e-08
6.20458e-07
-1.06481e-07
8.57422e-08
-5.50199e-08
6.10578e-07
-1.08855e-07
6.33087e-08
-4.91096e-08
6.39617e-07
4.16829e-08
-4.46548e-08
6.61668e-07
2.06688e-08
-4.16829e-08
6.76531e-07
2.7127e-15
-4.02353e-08
6.84015e-07
-2.06688e-08
-4.02353e-08
6.84015e-07
-4.16829e-08
-4.16829e-08
6.76531e-07
-6.33087e-08
-4.46548e-08
6.61668e-07
-8.57422e-08
-4.91095e-08
6.39617e-07
-5.50199e-08
6.10578e-07
-1.08855e-07
9.11797e-08
-8.32257e-08
5.9089e-07
-1.14433e-07
6.7613e-08
-7.4012e-08
6.2216e-07
4.46548e-08
-6.7613e-08
6.4579e-07
2.21754e-08
-6.33087e-08
6.61668e-07
5.85355e-15
-6.12331e-08
6.69651e-07
-2.21753e-08
-6.12331e-08
6.69651e-07
-4.46548e-08
-6.33087e-08
6.61668e-07
-6.7613e-08
-6.7613e-08
6.4579e-07
-9.11797e-08
-7.4012e-08
6.2216e-07
-8.32257e-08
5.9089e-07
-1.14433e-07
9.91342e-08
-1.14663e-07
5.61409e-07
-1.19722e-07
7.4012e-08
-9.91342e-08
5.96088e-07
4.91096e-08
-9.11798e-08
6.2216e-07
2.44229e-08
-8.57422e-08
6.39617e-07
6.7119e-15
-8.32183e-08
6.4838e-07
-2.44229e-08
-8.32184e-08
6.4838e-07
-4.91096e-08
-8.57422e-08
6.39617e-07
-7.4012e-08
-9.11797e-08
6.2216e-07
-9.91342e-08
-9.91341e-08
5.96088e-07
-1.14663e-07
5.61409e-07
-1.19722e-07
1.14663e-07
5.22243e-07
-1.40775e-07
-1.40775e-07
8.32257e-08
5.61409e-07
-1.19722e-07
5.50199e-08
5.9089e-07
-1.14433e-07
2.72671e-08
6.10578e-07
-1.08855e-07
2.79099e-15
6.20458e-07
-1.06481e-07
-2.72671e-08
6.20458e-07
-1.06481e-07
-5.50199e-08
6.10578e-07
-1.08855e-07
-8.32257e-08
5.9089e-07
-1.14433e-07
-1.14663e-07
5.61409e-07
-1.19722e-07
5.22243e-07
-1.40775e-07
-1.40776e-07
4.26627e-08
4.26627e-08
5.31831e-07
-4.74565e-08
-4.74565e-08
3.40366e-08
4.24223e-08
5.73643e-07
-4.60301e-08
2.39633e-08
4.29629e-08
6.05361e-07
-4.73607e-08
1.23149e-08
4.30385e-08
6.26667e-07
-4.74786e-08
-4.80075e-15
4.30992e-08
6.37389e-07
-4.77154e-08
-1.23149e-08
4.30992e-08
6.37389e-07
-4.77154e-08
-2.39634e-08
4.30385e-08
6.26667e-07
-4.74786e-08
-3.40366e-08
4.29629e-08
6.05361e-07
-4.73607e-08
-4.26628e-08
4.24223e-08
5.73643e-07
-4.60301e-08
4.26627e-08
5.31831e-07
-4.74565e-08
-4.74565e-08
4.24223e-08
3.40366e-08
5.73643e-07
-4.60301e-08
3.47777e-08
3.47777e-08
6.11377e-07
2.46723e-08
3.52174e-08
6.4001e-07
1.27723e-08
3.52887e-08
6.59266e-07
9.66563e-17
3.53042e-08
6.68948e-07
-1.27723e-08
3.53041e-08
6.68948e-07
-2.46723e-08
3.52887e-08
6.59266e-07
-3.47777e-08
3.52174e-08
6.4001e-07
-4.24223e-08
3.47777e-08
6.11377e-07
3.40366e-08
5.73643e-07
-4.60301e-08
4.29629e-08
2.39633e-08
6.05361e-07
-4.73607e-08
3.52174e-08
2.46722e-08
6.4001e-07
2.49454e-08
2.49454e-08
6.66334e-07
1.2907e-08
2.49688e-08
6.84026e-07
2.18224e-15
2.49531e-08
6.92909e-07
-1.2907e-08
2.49531e-08
6.92909e-07
-2.49454e-08
2.49688e-08
6.84026e-07
-3.52174e-08
2.49454e-08
6.66334e-07
-4.29629e-08
2.46723e-08
6.4001e-07
2.39633e-08
6.05361e-07
-4.73607e-08
4.30385e-08
1.23149e-08
6.26667e-07
-4.74786e-08
3.52887e-08
1.27723e-08
6.59266e-07
2.49688e-08
1.2907e-08
6.84026e-07
1.29116e-08
1.29116e-08
7.00645e-07
1.98877e-15
1.2897e-08
7.08983e-07
-1.29116e-08
1.2897e-08
7.08983e-07
-2.49688e-08
1.29116e-08
7.00645e-07
-3.52887e-08
1.2907e-08
6.84026e-07
-4.30385e-08
1.27723e-08
6.59266e-07
1.23149e-08
6.26667e-07
-4.74786e-08
4.30992e-08
-3.83735e-15
6.37389e-07
-4.77154e-08
3.53041e-08
-4.55237e-15
6.68948e-07
2.49531e-08
-8.38325e-16
6.92909e-07
1.2897e-08
2.11195e-15
7.08983e-07
3.01663e-15
3.28907e-15
7.17049e-07
-1.2897e-08
2.88763e-15
7.17049e-07
-2.49531e-08
3.1504e-15
7.08983e-07
-3.53041e-08
9.4133e-15
6.92909e-07
-4.30992e-08
7.65479e-15
6.68948e-07
-1.46529e-15
6.37389e-07
-4.77154e-08
4.30992e-08
-1.23149e-08
6.37389e-07
-4.77154e-08
3.53041e-08
-1.27723e-08
6.68948e-07
2.49531e-08
-1.2907e-08
6.92909e-07
1.2897e-08
-1.29116e-08
7.08983e-07
2.71805e-15
-1.2897e-08
7.17049e-07
-1.2897e-08
-1.2897e-08
7.17049e-07
-2.49531e-08
-1.29116e-08
7.08983e-07
-3.53041e-08
-1.29069e-08
6.92909e-07
-4.30992e-08
-1.27723e-08
6.68948e-07
-1.23149e-08
6.37389e-07
-4.77154e-08
4.30385e-08
-2.39633e-08
6.26667e-07
-4.74786e-08
3.52887e-08
-2.46723e-08
6.59266e-07
2.49688e-08
-2.49454e-08
6.84026e-07
1.29116e-08
-2.49688e-08
7.00645e-07
3.43759e-15
-2.49531e-08
7.08983e-07
-1.29116e-08
-2.49531e-08
7.08983e-07
-2.49688e-08
-2.49688e-08
7.00645e-07
-3.52887e-08
-2.49454e-08
6.84026e-07
-4.30385e-08
-2.46722e-08
6.59266e-07
-2.39634e-08
6.26667e-07
-4.74786e-08
4.29629e-08
-3.40366e-08
6.05361e-07
-4.73607e-08
3.52174e-08
-3.47777e-08
6.4001e-07
2.49454e-08
-3.52174e-08
6.66334e-07
1.2907e-08
-3.52887e-08
6.84026e-07
4.88784e-15
-3.53041e-08
6.92909e-07
-1.2907e-08
-3.53041e-08
6.92909e-07
-2.49454e-08
-3.52887e-08
6.84026e-07
-3.52174e-08
-3.52174e-08
6.66334e-07
-4.29629e-08
-3.47777e-08
6.4001e-07
-3.40367e-08
6.05361e-07
-4.73607e-08
4.24223e-08
-4.26627e-08
5.73643e-07
-4.60301e-08
3.47777e-08
-4.24223e-08
6.11377e-07
2.46723e-08
-4.29629e-08
6.4001e-07
1.27723e-08
-4.30385e-08
6.59266e-07
5.95014e-15
-4.30992e-08
6.68948e-07
-1.27723e-08
-4.30992e-08
6.68948e-07
-2.46722e-08
-4.30385e-08
6.59266e-07
-3.47777e-08
-4.29628e-08
6.4001e-07
-4.24223e-08
-4.24223e-08
6.11377e-07
-4.26628e-08
5.73643e-07
-4.60301e-08
4.26627e-08
5.31831e-07
-4.74565e-08
-4.74565e-08
3.40366e-08
5.73643e-07
-4.60301e-08
2.39633e-08
6.05361e-07
-4.73607e-08
1.23149e-08
6.26667e-07
-4.74786e-08
-1.43139e-15
6.37389e-07
-4.77154e-08
-1.23149e-08
6.37389e-07
-4.77154e-08
-2.39634e-08
6.26667e-07
-4.74786e-08
-3.40367e-08
6.05361e-07
-4.73607e-08
-4.26628e-08
5.73643e-07
-4.60301e-08
5.31831e-07
-4.74565e-08
-4.74565e-08
1.9332e-08
1.9332e-08
5.3393e-07
-2.0382e-08
-2.0382e-08
1.58605e-08
1.96847e-08
5.77722e-07
-2.02929e-08
1.13149e-08
2.01578e-08
6.10869e-07
-2.11206e-08
5.85539e-09
2.03629e-08
6.33138e-07
-2.13751e-08
5.91877e-16
2.04686e-08
6.44336e-07
-2.15602e-08
-5.85539e-09
2.04686e-08
6.44336e-07
-2.15602e-08
-1.13149e-08
2.03629e-08
6.33138e-07
-2.13751e-08
-1.58605e-08
2.01578e-08
6.10869e-07
-2.11206e-08
-1.9332e-08
1.96847e-08
5.77722e-07
-2.02929e-08
1.9332e-08
5.3393e-07
-2.0382e-08
-2.0382e-08
1.96847e-08
1.58605e-08
5.77722e-07
-2.0293e-08
1.65816e-08
1.65815e-08
6.17583e-07
1.19345e-08
1.70187e-08
6.47797e-07
6.22925e-09
1.72238e-08
6.68111e-07
1.79824e-15
1.73224e-08
6.78323e-07
-6.22924e-09
1.73224e-08
6.78323e-07
-1.19345e-08
1.72238e-08
6.68111e-07
-1.65815e-08
1.70187e-08
6.47797e-07
-1.96847e-08
1.65815e-08
6.17583e-07
1.58605e-08
5.77722e-07
-2.02929e-08
2.01578e-08
1.13149e-08
6.10869e-07
-2.11206e-08
1.70187e-08
1.19345e-08
6.47797e-07
1.22792e-08
1.22792e-08
6.75813e-07
6.42398e-09
1.2453e-08
6.94652e-07
3.4521e-15
1.25334e-08
7.04122e-07
-6.42397e-09
1.25334e-08
7.04122e-07
-1.22792e-08
1.2453e-08
6.94652e-07
-1.70187e-08
1.22792e-08
6.75813e-07
-2.01578e-08
1.19345e-08
6.47797e-07
1.13149e-08
6.10869e-07
-2.11206e-08
2.03629e-08
5.8554e-09
6.33138e-07
-2.13751e-08
1.72238e-08
6.22924e-09
6.68111e-07
1.2453e-08
6.42397e-09
6.94652e-07
6.52536e-09
6.52537e-09
7.12501e-07
3.33509e-15
6.57054e-09
7.21471e-07
-6.52536e-09
6.57054e-09
7.21471e-07
-1.2453e-08
6.52536e-09
7.12501e-07
-1.72238e-08
6.42397e-09
6.94652e-07
-2.03629e-08
6.22925e-09
6.68111e-07
5.85539e-09
6.33138e-07
-2.13751e-08
2.04686e-08
3.3223e-15
6.44336e-07
-2.15602e-08
1.73224e-08
-1.26307e-15
6.78323e-07
1.25334e-08
2.78476e-15
7.04122e-07
6.57054e-09
4.73687e-15
7.21471e-07
3.35776e-15
4.3711e-15
7.3019e-07
-6.57053e-09
3.25131e-15
7.3019e-07
-1.25334e-08
2.53389e-15
7.21471e-07
-1.73224e-08
5.83343e-15
7.04122e-07
-2.04686e-08
5.21247e-15
6.78323e-07
1.07832e-15
6.44336e-07
-2.15602e-08
2.04686e-08
-5.85539e-09
6.44336e-07
-2.15602e-08
1.73224e-08
-6.22925e-09
6.78323e-07
1.25334e-08
-6.42397e-09
7.04122e-07
6.57054e-09
-6.52536e-09
7.21471e-07
1.5985e-15
-6.57053e-09
7.3019e-07
-6.57054e-09
-6.57054e-09
7.3019e-07
-1.25334e-08
-6.52536e-09
7.21471e-07
-1.73224e-08
-6.42396e-09
7.04122e-07
-2.04686e-08
-6.22923e-09
6.78323e-07
-5.85539e-09
6.44336e-07
-2.15602e-08
2.03629e-08
-1.13149e-08
6.33138e-07
-2.13751e-08
1.72238e-08
-1.19345e-08
6.68111e-07
1.2453e-08
-1.22792e-08
6.94652e-07
6.52536e-09
-1.2453e-08
7.12501e-07
1.96288e-15
-1.25334e-08
7.21471e-07
-6.52536e-09
-1.25334e-08
7.21471e-07
-1.2453e-08
-1.2453e-08
7.12501e-07
-1.72238e-08
-1.22792e-08
6.94652e-07
-2.03629e-08
-1.19345e-08
6.68111e-07
-1.13149e-08
6.33138e-07
-2.13751e-08
2.01578e-08
-1.58605e-08
6.10869e-07
-2.11206e-08
1.70187e-08
-1.65815e-08
6.47797e-07
1.22792e-08
-1.70187e-08
6.75813e-07
6.42397e-09
-1.72238e-08
6.94652e-07
4.65648e-15
-1.73224e-08
7.04122e-07
-6.42396e-09
-1.73224e-08
7.04122e-07
-1.22792e-08
-1.72238e-08
6.94652e-07
-1.70187e-08
-1.70187e-08
6.75813e-07
-2.01578e-08
-1.65815e-08
6.47797e-07
-1.58605e-08
6.10869e-07
-2.11206e-08
1.96847e-08
-1.9332e-08
5.77722e-07
-2.02929e-08
1.65815e-08
-1.96847e-08
6.17583e-07
1.19345e-08
-2.01578e-08
6.47797e-07
6.22924e-09
-2.03629e-08
6.68111e-07
1.7782e-15
-2.04686e-08
6.78323e-07
-6.22924e-09
-2.04686e-08
6.78323e-07
-1.19345e-08
-2.03629e-08
6.68111e-07
-1.65815e-08
-2.01578e-08
6.47797e-07
-1.96847e-08
-1.96847e-08
6.17583e-07
-1.9332e-08
5.77722e-07
-2.02929e-08
1.9332e-08
5.3393e-07
-2.0382e-08
-2.0382e-08
1.58605e-08
5.77722e-07
-2.02929e-08
1.13149e-08
6.10869e-07
-2.11206e-08
5.85539e-09
6.33138e-07
-2.13751e-08
-1.04161e-15
6.44336e-07
-2.15602e-08
-5.85539e-09
6.44336e-07
-2.15602e-08
-1.1315e-08
6.33138e-07
-2.13751e-08
-1.58605e-08
6.10869e-07
-2.11206e-08
-1.9332e-08
5.77722e-07
-2.02929e-08
5.3393e-07
-2.0382e-08
-2.0382e-08
6.97534e-09
6.97533e-09
5.3389e-07
-6.95486e-09
-6.95487e-09
5.9934e-09
7.56091e-09
5.78484e-07
-7.34077e-09
4.40672e-09
8.06879e-09
6.1231e-07
-7.92339e-09
2.32186e-09
8.35616e-09
6.35077e-07
-8.20984e-09
2.381e-15
8.49725e-09
6.46532e-07
-8.37116e-09
-2.32186e-09
8.49725e-09
6.46532e-07
-8.37116e-09
-4.40671e-09
8.35616e-09
6.35077e-07
-8.20984e-09
-5.99338e-09
8.06879e-09
6.1231e-07
-7.92339e-09
-6.97534e-09
7.56093e-09
5.78484e-07
-7.34078e-09
6.97535e-09
5.3389e-07
-6.95486e-09
-6.95486e-09
7.56092e-09
5.99339e-09
5.78484e-07
-7.34078e-09
6.66092e-09
6.66092e-09
6.19383e-07
4.94011e-09
7.12108e-09
6.50465e-07
2.62286e-09
7.38484e-09
6.71399e-07
4.53834e-17
7.51118e-09
6.81932e-07
-2.62286e-09
7.51118e-09
6.81932e-07
-4.94011e-09
7.38483e-09
6.71399e-07
-6.66093e-09
7.12107e-09
6.50465e-07
-7.56092e-09
6.66092e-09
6.19383e-07
5.9934e-09
5.78484e-07
-7.34078e-09
8.06879e-09
4.40671e-09
6.1231e-07
-7.92339e-09
7.12108e-09
4.94011e-09
6.50465e-07
5.28581e-09
5.28581e-09
6.79483e-07
2.80864e-09
5.48552e-09
6.99029e-07
1.41307e-15
5.57972e-09
7.08862e-07
-2.80864e-09
5.57972e-09
7.08862e-07
-5.28581e-09
5.48552e-09
6.99029e-07
-7.12109e-09
5.28581e-09
6.79483e-07
-8.0688e-09
4.94011e-09
6.50465e-07
4.40671e-09
6.1231e-07
-7.92339e-09
8.35616e-09
2.32186e-09
6.35077e-07
-8.20984e-09
7.38483e-09
2.62286e-09
6.71399e-07
5.48552e-09
2.80864e-09
6.99029e-07
2.91665e-09
2.91665e-09
7.17638e-07
2.27908e-15
2.9672e-09
7.27e-07
-2.91664e-09
2.9672e-09
7.27e-07
-5.48552e-09
2.91665e-09
7.17638e-07
-7.38483e-09
2.80864e-09
6.99029e-07
-8.35616e-09
2.62286e-09
6.71399e-07
2.32186e-09
6.35077e-07
-8.20984e-09
8.49725e-09
7.13376e-16
6.46532e-07
-8.37116e-09
7.51118e-09
-5.7669e-16
6.81932e-07
5.57972e-09
1.48647e-15
7.08862e-07
2.9672e-09
2.35339e-15
7.27e-07
3.40666e-15
3.85494e-15
7.36124e-07
-2.96719e-09
3.31748e-15
7.36124e-07
-5.57971e-09
3.4408e-15
7.27e-07
-7.51118e-09
5.68496e-15
7.08862e-07
-8.49725e-09
3.84531e-15
6.81932e-07
4.69912e-16
6.46532e-07
-8.37116e-09
8.49725e-09
-2.32186e-09
6.46532e-07
-8.37116e-09
7.51118e-09
-2.62286e-09
6.81932e-07
5.57971e-09
-2.80864e-09
7.08862e-07
2.9672e-09
-2.91664e-09
7.27e-07
2.9917e-15
-2.96719e-09
7.36124e-07
-2.96719e-09
-2.96719e-09
7.36124e-07
-5.57971e-09
-2.91664e-09
7.27e-07
-7.51118e-09
-2.80863e-09
7.08862e-07
-8.49725e-09
-2.62285e-09
6.81932e-07
-2.32186e-09
6.46532e-07
-8.37116e-09
8.35615e-09
-4.40671e-09
6.35077e-07
-8.20984e-09
7.38483e-09
-4.94011e-09
6.71399e-07
5.48552e-09
-5.28581e-09
6.99029e-07
2.91665e-09
-5.48552e-09
7.17638e-07
3.14985e-15
-5.57971e-09
7.27e-07
-2.91664e-09
-5.57971e-09
7.27e-07
-5.48551e-09
-5.48551e-09
7.17638e-07
-7.38483e-09
-5.2858e-09
6.99029e-07
-8.35616e-09
-4.9401e-09
6.71399e-07
-4.40672e-09
6.35077e-07
-8.20983e-09
8.0688e-09
-5.99339e-09
6.1231e-07
-7.92339e-09
7.12108e-09
-6.66092e-09
6.50465e-07
5.28581e-09
-7.12109e-09
6.79483e-07
2.80864e-09
-7.38484e-09
6.99029e-07
4.6337e-15
-7.51118e-09
7.08862e-07
-2.80863e-09
-7.51118e-09
7.08862e-07
-5.2858e-09
-7.38483e-09
6.99029e-07
-7.12107e-09
-7.12107e-09
6.79483e-07
-8.06879e-09
-6.66091e-09
6.50465e-07
-5.9934e-09
6.1231e-07
-7.92338e-09
7.56093e-09
-6.97534e-09
5.78484e-07
-7.34078e-09
6.66092e-09
-7.56092e-09
6.19383e-07
4.94011e-09
-8.06881e-09
6.50465e-07
2.62286e-09
-8.35616e-09
6.71399e-07
2.77561e-15
-8.49725e-09
6.81932e-07
-2.62285e-09
-8.49725e-09
6.81932e-07
-4.9401e-09
-8.35616e-09
6.71399e-07
-6.66092e-09
-8.06878e-09
6.50465e-07
-7.56092e-09
-7.56091e-09
6.19383e-07
-6.97535e-09
5.78484e-07
-7.34077e-09
6.97534e-09
5.3389e-07
-6.95486e-09
-6.95486e-09
5.99339e-09
5.78484e-07
-7.34077e-09
4.40671e-09
6.1231e-07
-7.9234e-09
2.32186e-09
6.35077e-07
-8.20984e-09
-8.34857e-18
6.46532e-07
-8.37116e-09
-2.32186e-09
6.46532e-07
-8.37116e-09
-4.40672e-09
6.35077e-07
-8.20984e-09
-5.99339e-09
6.1231e-07
-7.92338e-09
-6.97534e-09
5.78484e-07
-7.34077e-09
5.3389e-07
-6.95487e-09
-6.95487e-09
2.37878e-09
2.37877e-09
5.33736e-07
-2.30192e-09
-2.30191e-09
2.09664e-09
2.68291e-09
5.7859e-07
-2.50687e-09
1.56842e-09
2.94666e-09
6.12657e-07
-2.76548e-09
8.3532e-10
3.11052e-09
6.35611e-07
-2.91119e-09
-4.24354e-16
3.19319e-09
6.47165e-07
-2.99121e-09
-8.35321e-10
3.19319e-09
6.47165e-07
-2.99121e-09
-1.56842e-09
3.11051e-09
6.35611e-07
-2.91118e-09
-2.09662e-09
2.94664e-09
6.12657e-07
-2.76548e-09
-2.37876e-09
2.68291e-09
5.7859e-07
-2.50687e-09
2.37878e-09
5.33736e-07
-2.3019e-09
-2.30191e-09
2.68293e-09
2.09663e-09
5.7859e-07
-2.50688e-09
2.43574e-09
2.43573e-09
6.19877e-07
1.84493e-09
2.68942e-09
6.51313e-07
9.91872e-10
2.84883e-09
6.72514e-07
9.08935e-16
2.92809e-09
6.83189e-07
-9.91871e-10
2.92809e-09
6.83189e-07
-1.84492e-09
2.84882e-09
6.72514e-07
-2.43574e-09
2.6894e-09
6.51313e-07
-2.68291e-09
2.43573e-09
6.19877e-07
2.09662e-09
5.7859e-07
-2.50686e-09
2.94666e-09
1.56842e-09
6.12657e-07
-2.76549e-09
2.68942e-09
1.84492e-09
6.51313e-07
2.04271e-09
2.04271e-09
6.80776e-07
1.10003e-09
2.16767e-09
7.00653e-07
3.09658e-15
2.22916e-09
7.10661e-07
-1.10003e-09
2.22916e-09
7.10661e-07
-2.0427e-09
2.16767e-09
7.00653e-07
-2.68942e-09
2.0427e-09
6.80776e-07
-2.94666e-09
1.84492e-09
6.51313e-07
1.56841e-09
6.12657e-07
-2.76549e-09
3.11051e-09
8.35321e-10
6.35611e-07
-2.91119e-09
2.84882e-09
9.91871e-10
6.72514e-07
2.16767e-09
1.10003e-09
7.00653e-07
1.16867e-09
1.16867e-09
7.19636e-07
3.48846e-15
1.20227e-09
7.29196e-07
-1.16866e-09
1.20227e-09
7.29196e-07
-2.16766e-09
1.16867e-09
7.19636e-07
-2.84882e-09
1.10003e-09
7.00653e-07
-3.11051e-09
9.91869e-10
6.72514e-07
8.35315e-10
6.35611e-07
-2.91119e-09
3.19319e-09
-5.25785e-16
6.47165e-07
-2.99121e-09
2.92809e-09
2.92474e-15
6.83189e-07
2.22916e-09
4.58968e-15
7.10661e-07
1.20227e-09
4.39406e-15
7.29196e-07
3.0656e-15
4.5677e-15
7.38529e-07
-1.20226e-09
3.29108e-15
7.38529e-07
-2.22915e-09
2.13005e-15
7.29196e-07
-2.92809e-09
3.10149e-15
7.10661e-07
-3.19319e-09
1.58239e-15
6.83189e-07
3.33761e-16
6.47165e-07
-2.99121e-09
3.19319e-09
-8.35321e-10
6.47165e-07
-2.99121e-09
2.92809e-09
-9.91865e-10
6.83189e-07
2.22916e-09
-1.10002e-09
7.10661e-07
1.20227e-09
-1.16866e-09
7.29196e-07
1.90462e-15
-1.20226e-09
7.38529e-07
-1.20226e-09
-1.20226e-09
7.38529e-07
-2.22915e-09
-1.16866e-09
7.29196e-07
-2.92809e-09
-1.10002e-09
7.10661e-07
-3.19319e-09
-9.91865e-10
6.83189e-07
-8.35315e-10
6.47165e-07
-2.99122e-09
3.11051e-09
-1.56842e-09
6.35611e-07
-2.91118e-09
2.84882e-09
-1.84491e-09
6.72514e-07
2.16766e-09
-2.0427e-09
7.00653e-07
1.16867e-09
-2.16766e-09
7.19636e-07
1.21632e-15
-2.22915e-09
7.29196e-07
-1.16866e-09
-2.22915e-09
7.29196e-07
-2.16766e-09
-2.16766e-09
7.19636e-07
-2.84882e-09
-2.04269e-09
7.00653e-07
-3.11051e-09
-1.84491e-09
6.72514e-07
-1.56842e-09
6.35611e-07
-2.91118e-09
2.94664e-09
-2.09662e-09
6.12657e-07
-2.76548e-09
2.6894e-09
-2.43573e-09
6.51313e-07
2.0427e-09
-2.68941e-09
6.80776e-07
1.10003e-09
-2.84882e-09
7.00653e-07
2.48549e-15
-2.92809e-09
7.10661e-07
-1.10002e-09
-2.92809e-09
7.10661e-07
-2.04269e-09
-2.84882e-09
7.00653e-07
-2.68941e-09
-2.68941e-09
6.80776e-07
-2.94664e-09
-2.43572e-09
6.51313e-07
-2.09663e-09
6.12657e-07
-2.76547e-09
2.68292e-09
-2.37877e-09
5.7859e-07
-2.50687e-09
2.43573e-09
-2.6829e-09
6.19877e-07
1.84492e-09
-2.94665e-09
6.51313e-07
9.91868e-10
-3.11051e-09
6.72514e-07
8.37553e-16
-3.19319e-09
6.83189e-07
-9.91865e-10
-3.19319e-09
6.83189e-07
-1.84491e-09
-3.11052e-09
6.72514e-07
-2.43572e-09
-2.94665e-09
6.51313e-07
-2.68291e-09
-2.6829e-09
6.19877e-07
-2.37877e-09
5.7859e-07
-2.50686e-09
2.37877e-09
5.33736e-07
-2.30191e-09
-2.30191e-09
2.09663e-09
5.7859e-07
-2.50686e-09
1.56841e-09
6.12657e-07
-2.76548e-09
8.35315e-10
6.35611e-07
-2.91119e-09
1.58609e-15
6.47165e-07
-2.99122e-09
-8.35313e-10
6.47165e-07
-2.99122e-09
-1.56842e-09
6.35611e-07
-2.91118e-09
-2.09663e-09
6.12657e-07
-2.76547e-09
-2.37877e-09
5.7859e-07
-2.50686e-09
5.33736e-07
-2.30191e-09
-2.30191e-09
8.42567e-10
8.42565e-10
5.33655e-07
-8.02272e-10
-8.02279e-10
7.51663e-10
9.66056e-10
5.78599e-07
-8.83852e-10
5.6666e-10
1.07419e-09
6.12752e-07
-9.83262e-10
3.03285e-10
1.14425e-09
6.35772e-07
-1.04218e-09
-1.31726e-15
1.18e-09
6.47363e-07
-1.07425e-09
-3.03289e-10
1.18e-09
6.47363e-07
-1.07424e-09
-5.66661e-10
1.14425e-09
6.35772e-07
-1.04218e-09
-7.51663e-10
1.07419e-09
6.12751e-07
-9.83264e-10
-8.42566e-10
9.66065e-10
5.78599e-07
-8.83859e-10
8.42567e-10
5.33655e-07
-8.02272e-10
-8.02278e-10
9.66071e-10
7.51653e-10
5.78599e-07
-8.83859e-10
8.90961e-10
8.90956e-10
6.20028e-07
6.82217e-10
9.99156e-10
6.51597e-07
3.69225e-10
1.07011e-09
6.72901e-07
-2.28778e-15
1.10609e-09
6.83632e-07
-3.6923e-10
1.10609e-09
6.83632e-07
-6.82229e-10
1.07011e-09
6.72901e-07
-8.90976e-10
9.99158e-10
6.51597e-07
-9.6609e-10
8.90963e-10
6.20028e-07
7.51643e-10
5.78599e-07
-8.83862e-10
1.07419e-09
5.66652e-10
6.12752e-07
-9.83265e-10
9.99153e-10
6.82216e-10
6.51597e-07
7.69026e-10
7.6903e-10
6.81237e-07
4.17442e-10
8.26356e-10
7.01248e-07
1.0347e-15
8.55226e-10
7.11329e-07
-4.17441e-10
8.55225e-10
7.11329e-07
-7.69028e-10
8.26354e-10
7.01248e-07
-9.99158e-10
7.69031e-10
6.81237e-07
-1.0742e-09
6.82222e-10
6.51597e-07
5.66645e-10
6.12751e-07
-9.83273e-10
1.14424e-09
3.03283e-10
6.35772e-07
-1.04218e-09
1.0701e-09
3.69224e-10
6.72901e-07
8.26347e-10
4.17445e-10
7.01248e-07
4.49466e-10
4.4947e-10
7.2039e-07
2.47261e-15
4.65546e-10
7.30035e-07
-4.49462e-10
4.65546e-10
7.30035e-07
-8.26344e-10
4.49469e-10
7.2039e-07
-1.0701e-09
4.17445e-10
7.01248e-07
-1.14424e-09
3.69226e-10
6.72901e-07
3.03282e-10
6.35772e-07
-1.04218e-09
1.18e-09
-1.72559e-15
6.47363e-07
-1.07425e-09
1.10608e-09
1.32468e-15
6.83632e-07
8.55221e-10
3.17138e-15
7.11329e-07
4.65544e-10
3.57645e-15
7.30035e-07
2.91788e-15
3.94513e-15
7.3946e-07
-4.65539e-10
3.67249e-15
7.3946e-07
-8.55217e-10
3.68311e-15
7.30035e-07
-1.10608e-09
4.61908e-15
7.11329e-07
-1.18e-09
2.04136e-15
6.83632e-07
7.29294e-17
6.47363e-07
-1.07425e-09
1.18e-09
-3.03288e-10
6.47363e-07
-1.07425e-09
1.10608e-09
-3.6922e-10
6.83632e-07
8.55221e-10
-4.17438e-10
7.11329e-07
4.65544e-10
-4.49463e-10
7.30035e-07
3.02117e-15
-4.65539e-10
7.3946e-07
-4.65538e-10
-4.65539e-10
7.3946e-07
-8.55216e-10
-4.49461e-10
7.30035e-07
-1.10608e-09
-4.17435e-10
7.11329e-07
-1.18e-09
-3.69222e-10
6.83632e-07
-3.03282e-10
6.47363e-07
-1.07425e-09
1.14424e-09
-5.66655e-10
6.35772e-07
-1.04218e-09
1.07009e-09
-6.82215e-10
6.72901e-07
8.26344e-10
-7.69025e-10
7.01248e-07
4.49465e-10
-8.2635e-10
7.2039e-07
2.22886e-15
-8.5522e-10
7.30035e-07
-4.49461e-10
-8.55219e-10
7.30035e-07
-8.26343e-10
-8.26346e-10
7.2039e-07
-1.0701e-09
-7.69021e-10
7.01248e-07
-1.14424e-09
-6.82217e-10
6.72901e-07
-5.66647e-10
6.35772e-07
-1.04218e-09
1.07417e-09
-7.51644e-10
6.12752e-07
-9.8326e-10
9.99146e-10
-8.90966e-10
6.51597e-07
7.69023e-10
-9.99156e-10
6.81237e-07
4.17441e-10
-1.07011e-09
7.01248e-07
2.13329e-15
-1.10608e-09
7.11329e-07
-4.17437e-10
-1.10608e-09
7.11329e-07
-7.69022e-10
-1.0701e-09
7.01248e-07
-9.9915e-10
-9.99147e-10
6.81237e-07
-1.07418e-09
-8.90961e-10
6.51597e-07
-7.51648e-10
6.12752e-07
-9.83259e-10
9.66086e-10
-8.42565e-10
5.78599e-07
-8.83862e-10
8.9097e-10
-9.66064e-10
6.20028e-07
6.82224e-10
-1.07419e-09
6.51597e-07
3.69228e-10
-1.14425e-09
6.72901e-07
7.8957e-16
-1.18e-09
6.83632e-07
-3.69226e-10
-1.18e-09
6.83632e-07
-6.82222e-10
-1.14424e-09
6.72901e-07
-8.9097e-10
-1.07417e-09
6.51597e-07
-9.6608e-10
-9.66064e-10
6.20028e-07
-8.4257e-10
5.78599e-07
-8.83856e-10
8.42573e-10
5.33655e-07
-8.02275e-10
-8.02279e-10
7.5166e-10
5.78599e-07
-8.83849e-10
5.66657e-10
6.12752e-07
-9.83264e-10
3.03284e-10
6.35772e-07
-1.04218e-09
-1.33446e-16
6.47363e-07
-1.07425e-09
-3.03286e-10
6.47363e-07
-1.07425e-09
-5.66658e-10
6.35772e-07
-1.04218e-09
-7.51652e-10
6.12752e-07
-9.83257e-10
-8.42567e-10
5.78599e-07
-8.83849e-10
5.33655e-07
-8.02277e-10
-8.02278e-10
3.01224e-10
3.01229e-10
5.3362e-07
-2.83772e-10
-2.83774e-10
2.71261e-10
3.49769e-10
5.78595e-07
-3.1557e-10
2.05787e-10
3.92468e-10
6.12778e-07
-3.53394e-10
1.10587e-10
4.20702e-10
6.35823e-07
-3.76434e-10
-4.85587e-15
4.35178e-10
6.47427e-07
-3.88872e-10
-1.10599e-10
4.35177e-10
6.47427e-07
-3.8887e-10
-2.05802e-10
4.20699e-10
6.35823e-07
-3.76428e-10
-2.71267e-10
3.92446e-10
6.12778e-07
-3.53387e-10
-3.01224e-10
3.49749e-10
5.78595e-07
-3.15563e-10
3.01223e-10
5.3362e-07
-2.83771e-10
-2.8377e-10
3.49766e-10
2.71269e-10
5.78595e-07
-3.15571e-10
3.26189e-10
3.26186e-10
6.20075e-07
2.51716e-10
3.69735e-10
6.51694e-07
1.36879e-10
3.98911e-10
6.73038e-07
2.28268e-17
4.13842e-10
6.83791e-07
-1.3688e-10
4.13842e-10
6.83791e-07
-2.51715e-10
3.98907e-10
6.73038e-07
-3.26194e-10
3.69724e-10
6.51694e-07
-3.49781e-10
3.2618e-10
6.20075e-07
2.71253e-10
5.78595e-07
-3.15576e-10
3.92481e-10
2.05783e-10
6.12778e-07
-3.53395e-10
3.69741e-10
2.51718e-10
6.51694e-07
2.87145e-10
2.87142e-10
6.81402e-07
1.5671e-10
3.11074e-10
7.01466e-07
4.07773e-15
3.23267e-10
7.11577e-07
-1.56701e-10
3.23265e-10
7.11577e-07
-2.87132e-10
3.11069e-10
7.01466e-07
-3.69727e-10
2.87134e-10
6.81402e-07
-3.92456e-10
2.51707e-10
6.51694e-07
2.05784e-10
6.12778e-07
-3.53392e-10
4.20706e-10
1.10582e-10
6.35823e-07
-3.76436e-10
3.98913e-10
1.36882e-10
6.73038e-07
3.11073e-10
1.5671e-10
7.01466e-07
1.70195e-10
1.70197e-10
7.20672e-07
4.53149e-15
1.77055e-10
7.30351e-07
-1.70186e-10
1.77053e-10
7.30351e-07
-3.11063e-10
1.70192e-10
7.20672e-07
-3.98902e-10
1.56703e-10
7.01466e-07
-4.20695e-10
1.36874e-10
6.73038e-07
1.10588e-10
6.35823e-07
-3.76431e-10
4.35177e-10
-5.60162e-15
6.47427e-07
-3.88874e-10
4.1384e-10
2.96113e-15
6.83791e-07
3.23264e-10
4.95293e-15
7.11577e-07
1.77053e-10
5.30035e-15
7.30351e-07
3.70122e-15
4.60916e-15
7.39814e-07
-1.77046e-10
3.31509e-15
7.39814e-07
-3.23258e-10
1.60198e-15
7.30351e-07
-4.13836e-10
6.73376e-16
7.11577e-07
-4.35174e-10
-2.61925e-15
6.83791e-07
1.07106e-15
6.47427e-07
-3.88873e-10
4.35176e-10
-1.10598e-10
6.47427e-07
-3.88869e-10
4.13838e-10
-1.36875e-10
6.83791e-07
3.23262e-10
-1.567e-10
7.11577e-07
1.77051e-10
-1.70186e-10
7.30351e-07
2.32569e-15
-1.77046e-10
7.39814e-07
-1.77047e-10
-1.77047e-10
7.39814e-07
-3.23259e-10
-1.70189e-10
7.30351e-07
-4.13837e-10
-1.56703e-10
7.11577e-07
-4.35175e-10
-1.3688e-10
6.83791e-07
-1.10584e-10
6.47427e-07
-3.88875e-10
4.20699e-10
-2.058e-10
6.35823e-07
-3.76429e-10
3.98906e-10
-2.5171e-10
6.73038e-07
3.11067e-10
-2.87132e-10
7.01466e-07
1.70191e-10
-3.11065e-10
7.20672e-07
1.13588e-15
-3.23259e-10
7.30351e-07
-1.70189e-10
-3.23259e-10
7.30351e-07
-3.11066e-10
-3.11066e-10
7.20672e-07
-3.98905e-10
-2.87137e-10
7.01466e-07
-4.20695e-10
-2.51717e-10
6.73038e-07
-2.05782e-10
6.35823e-07
-3.7643e-10
3.9246e-10
-2.7127e-10
6.12778e-07
-3.53391e-10
3.6973e-10
-3.26186e-10
6.51694e-07
2.87138e-10
-3.69727e-10
6.81402e-07
1.56706e-10
-3.98905e-10
7.01466e-07
2.26717e-15
-4.13836e-10
7.11577e-07
-1.56702e-10
-4.13836e-10
7.11577e-07
-2.87134e-10
-3.98905e-10
7.01466e-07
-3.69727e-10
-3.69731e-10
6.81402e-07
-3.9246e-10
-3.26189e-10
6.51694e-07
-2.71258e-10
6.12778e-07
-3.53387e-10
3.49764e-10
-3.01224e-10
5.78595e-07
-3.15575e-10
3.26184e-10
-3.49762e-10
6.20075e-07
2.5171e-10
-3.92454e-10
6.51694e-07
1.36877e-10
-4.20699e-10
6.73038e-07
2.92987e-16
-4.35175e-10
6.83791e-07
-1.36876e-10
-4.35174e-10
6.83791e-07
-2.51712e-10
-4.20696e-10
6.73038e-07
-3.26182e-10
-3.92469e-10
6.51694e-07
-3.49762e-10
-3.4977e-10
6.20075e-07
-3.01224e-10
5.78595e-07
-3.15564e-10
3.01218e-10
5.3362e-07
-2.83765e-10
-2.83772e-10
2.71256e-10
5.78595e-07
-3.15567e-10
2.05787e-10
6.12778e-07
-3.53391e-10
1.10587e-10
6.35823e-07
-3.76433e-10
2.69046e-15
6.47427e-07
-3.88876e-10
-1.10581e-10
6.47427e-07
-3.88875e-10
-2.05777e-10
6.35823e-07
-3.76431e-10
-2.71256e-10
6.12778e-07
-3.53391e-10
-3.01222e-10
5.78595e-07
-3.15568e-10
5.3362e-07
-2.83771e-10
-2.83769e-10
1.07995e-10
1.07997e-10
5.33607e-07
-1.01159e-10
-1.01159e-10
9.78066e-11
1.26468e-10
5.78592e-07
-1.13147e-10
7.44902e-11
1.42829e-10
6.12786e-07
-1.27259e-10
4.01365e-11
1.5381e-10
6.35839e-07
-1.36019e-10
-3.0669e-15
1.59464e-10
6.47449e-07
-1.40731e-10
-4.01446e-11
1.59464e-10
6.47449e-07
-1.40728e-10
-7.45026e-11
1.53812e-10
6.35839e-07
-1.36016e-10
-9.78248e-11
1.42837e-10
6.12786e-07
-1.27257e-10
-1.08001e-10
1.26457e-10
5.78592e-07
-1.13145e-10
1.07994e-10
5.33607e-07
-1.01158e-10
-1.01161e-10
1.2646e-10
9.78116e-11
5.78592e-07
-1.13143e-10
1.18809e-10
1.18812e-10
6.2009e-07
9.21766e-11
1.35743e-10
6.51728e-07
5.02921e-11
1.47264e-10
6.73086e-07
-1.7093e-15
1.53201e-10
6.83847e-07
-5.02959e-11
1.53201e-10
6.83847e-07
-9.21812e-11
1.47266e-10
6.73086e-07
-1.18812e-10
1.35745e-10
6.51728e-07
-1.26473e-10
1.18808e-10
6.2009e-07
9.77992e-11
5.78592e-07
-1.13147e-10
1.42827e-10
7.44903e-11
6.12786e-07
-1.27254e-10
1.35742e-10
9.21792e-11
6.51728e-07
1.06092e-10
1.06095e-10
6.81461e-07
5.81262e-11
1.1565e-10
7.01546e-07
5.32236e-16
1.20559e-10
7.11668e-07
-5.81254e-11
1.20559e-10
7.11668e-07
-1.06092e-10
1.15651e-10
7.01546e-07
-1.35741e-10
1.06097e-10
6.81461e-07
-1.42831e-10
9.21785e-11
6.51728e-07
7.44847e-11
6.12786e-07
-1.27261e-10
1.53807e-10
4.01356e-11
6.35839e-07
-1.36016e-10
1.47263e-10
5.02939e-11
6.73086e-07
1.15649e-10
5.81285e-11
7.01546e-07
6.35466e-11
6.35476e-11
7.20776e-07
1.98085e-15
6.63286e-11
7.30469e-07
-6.3543e-11
6.63283e-11
7.30469e-07
-1.15645e-10
6.35473e-11
7.20776e-07
-1.47259e-10
5.81291e-11
7.01546e-07
-1.53804e-10
5.02926e-11