/*--------------------------------*- C++ -*----------------------------------*\
| =========                 |                                                 |
| \\      /  F ield         | OpenFOAM: The Open Source CFD Toolbox           |
|  \\    /   O peration     | Version:  2412                                  |
|   \\  /    A nd           | Website:  www.openfoam.com                      |
|    \\/     M anipulation  |                                                 |
\*---------------------------------------------------------------------------*/
FoamFile
{
    version     2.0;
    format      ascii;
    arch        "LSB;label=32;scalar=64";
    class       surfaceScalarField;
    location    "0.4";
    object      phi;
}
// * * * * * * * * * * * * * * * * * * * * * * * * * * * * * * * * * * * * * //

dimensions      [0 3 -1 0 0 0 0];

oriented        oriented;

internalField   nonuniform List<scalar> 
43700
(
3.86822e-07
3.86825e-07
4.71484e-05
-4.60113e-07
-4.60118e-07
3.05284e-07
3.82933e-07
5.10976e-05
-4.60637e-07
2.10668e-07
3.83178e-07
5.41117e-05
-4.57272e-07
1.07433e-07
3.83447e-07
5.61463e-05
-4.55303e-07
4.40945e-12
3.83495e-07
5.71712e-05
-4.54375e-07
-1.07424e-07
3.83496e-07
5.71712e-05
-4.54376e-07
-2.10664e-07
3.8345e-07
5.61463e-05
-4.55304e-07
-3.05284e-07
3.83181e-07
5.41117e-05
-4.57274e-07
-3.86823e-07
3.82935e-07
5.10976e-05
-4.60641e-07
3.86824e-07
4.71484e-05
-4.60111e-07
-4.60127e-07
3.82929e-07
3.05285e-07
5.10976e-05
-4.60632e-07
2.97346e-07
2.97348e-07
5.47555e-05
2.03648e-07
2.96747e-07
5.75492e-05
1.03555e-07
2.9738e-07
5.94358e-05
5.46605e-12
2.97846e-07
6.03864e-05
-1.03546e-07
2.97845e-07
6.03864e-05
-2.03644e-07
2.9738e-07
5.94358e-05
-2.97346e-07
2.96748e-07
5.75492e-05
-3.82933e-07
2.97347e-07
5.47555e-05
3.05283e-07
5.10976e-05
-4.60632e-07
3.83175e-07
2.10668e-07
5.41117e-05
-4.57268e-07
2.96746e-07
2.03648e-07
5.75492e-05
2.02395e-07
2.02395e-07
6.0176e-05
1.02616e-07
2.02684e-07
6.19507e-05
5.58201e-12
2.03078e-07
6.28452e-05
-1.02605e-07
2.03077e-07
6.28452e-05
-2.02389e-07
2.02682e-07
6.19507e-05
-2.96746e-07
2.02392e-07
6.0176e-05
-3.83179e-07
2.03645e-07
5.75492e-05
2.10664e-07
5.41117e-05
-4.57271e-07
3.83443e-07
1.07432e-07
5.61463e-05
-4.55298e-07
2.97378e-07
1.03554e-07
5.94358e-05
2.02684e-07
1.02615e-07
6.19507e-05
1.0265e-07
1.02649e-07
6.36503e-05
5.23097e-12
1.02834e-07
6.45071e-05
-1.02639e-07
1.02832e-07
6.45071e-05
-2.0268e-07
1.02644e-07
6.36503e-05
-2.97378e-07
1.0261e-07
6.19507e-05
-3.83448e-07
1.03549e-07
5.94358e-05
1.07424e-07
5.61463e-05
-4.55302e-07
3.8349e-07
4.88424e-12
5.71712e-05
-4.54369e-07
2.97843e-07
6.40513e-12
6.03864e-05
2.03077e-07
5.78691e-12
6.28452e-05
1.02834e-07
4.72443e-12
6.45071e-05
3.54784e-12
2.76457e-12
6.53449e-05
-1.02827e-07
1.78139e-12
6.53449e-05
-2.03074e-07
1.04166e-13
6.45071e-05
-2.97843e-07
-8.08642e-13
6.28452e-05
-3.83495e-07
-1.03459e-12
6.03864e-05
-2.45762e-12
5.71712e-05
-4.54372e-07
3.83491e-07
-1.07421e-07
5.71712e-05
-4.54369e-07
2.97842e-07
-1.03543e-07
6.03864e-05
2.03076e-07
-1.02603e-07
6.28452e-05
1.02832e-07
-1.02638e-07
6.45071e-05
2.49257e-12
-1.02827e-07
6.53449e-05
-1.02829e-07
-1.02829e-07
6.53449e-05
-2.03075e-07
-1.02645e-07
6.45071e-05
-2.97843e-07
-1.02613e-07
6.28452e-05
-3.83494e-07
-1.03553e-07
6.03864e-05
-1.07432e-07
5.71712e-05
-4.54372e-07
3.83444e-07
-2.10658e-07
5.61463e-05
-4.55298e-07
2.97376e-07
-2.03638e-07
5.94358e-05
2.0268e-07
-2.02386e-07
6.19507e-05
1.02643e-07
-2.02677e-07
6.36503e-05
1.88108e-13
-2.03073e-07
6.45071e-05
-1.02645e-07
-2.03075e-07
6.45071e-05
-2.02682e-07
-2.02683e-07
6.36503e-05
-2.97378e-07
-2.02394e-07
6.19507e-05
-3.83447e-07
-2.03648e-07
5.94358e-05
-2.10671e-07
5.61463e-05
-4.553e-07
3.83175e-07
-3.05277e-07
5.41117e-05
-4.57267e-07
2.96743e-07
-2.9734e-07
5.75492e-05
2.02388e-07
-2.96742e-07
6.0176e-05
1.02608e-07
-2.97375e-07
6.19507e-05
-1.60148e-12
-2.97842e-07
6.28452e-05
-1.02613e-07
-2.97843e-07
6.28452e-05
-2.02394e-07
-2.97378e-07
6.19507e-05
-2.96747e-07
-2.96747e-07
6.0176e-05
-3.83179e-07
-2.97346e-07
5.75492e-05
-3.05286e-07
5.41117e-05
-4.57269e-07
3.82928e-07
-3.86817e-07
5.10976e-05
-4.60631e-07
2.97341e-07
-3.82928e-07
5.47555e-05
2.03641e-07
-3.83175e-07
5.75492e-05
1.03546e-07
-3.83444e-07
5.94358e-05
-2.87079e-12
-3.83491e-07
6.03864e-05
-1.03553e-07
-3.83491e-07
6.03864e-05
-2.03648e-07
-3.83445e-07
5.94358e-05
-2.97347e-07
-3.83178e-07
5.75492e-05
-3.82934e-07
-3.82933e-07
5.47555e-05
-3.86821e-07
5.10976e-05
-4.60632e-07
3.86816e-07
4.71484e-05
-4.60112e-07
-4.60113e-07
3.05277e-07
5.10976e-05
-4.6063e-07
2.1066e-07
5.41117e-05
-4.57266e-07
1.07423e-07
5.61463e-05
-4.55297e-07
-2.52223e-12
5.71712e-05
-4.54369e-07
-1.07432e-07
5.71712e-05
-4.54369e-07
-2.1067e-07
5.61463e-05
-4.55298e-07
-3.05285e-07
5.41117e-05
-4.57267e-07
-3.86822e-07
5.10976e-05
-4.60631e-07
4.71484e-05
-4.60115e-07
-4.60114e-07
1.06398e-06
1.06399e-06
4.75538e-05
-1.26669e-06
-1.26669e-06
8.37524e-07
1.053e-06
5.1537e-05
-1.26588e-06
5.77789e-07
1.05367e-06
5.45774e-05
-1.25955e-06
2.94696e-07
1.05517e-06
5.66297e-05
-1.25545e-06
5.94212e-12
1.05596e-06
5.76635e-05
-1.2536e-06
-2.94683e-07
1.05596e-06
5.76635e-05
-1.2536e-06
-5.77781e-07
1.05517e-06
5.66297e-05
-1.25545e-06
-8.37521e-07
1.05367e-06
5.45774e-05
-1.25955e-06
-1.06399e-06
1.05299e-06
5.1537e-05
-1.26588e-06
1.06398e-06
4.75538e-05
-1.26669e-06
-1.26669e-06
1.05299e-06
8.37525e-07
5.1537e-05
-1.26588e-06
8.17363e-07
8.17364e-07
5.52267e-05
5.59618e-07
8.15567e-07
5.8045e-05
2.84502e-07
8.17838e-07
5.99483e-05
7.64952e-12
8.19623e-07
6.09072e-05
-2.84489e-07
8.19621e-07
6.09072e-05
-5.59612e-07
8.17836e-07
5.99483e-05
-8.17362e-07
8.15565e-07
5.8045e-05
-1.053e-06
8.17361e-07
5.52267e-05
8.37522e-07
5.1537e-05
-1.26588e-06
1.05366e-06
5.77788e-07
5.45774e-05
-1.25955e-06
8.15567e-07
5.59618e-07
5.8045e-05
5.5598e-07
5.55979e-07
6.06952e-05
2.81783e-07
5.57089e-07
6.24857e-05
7.32772e-12
5.585e-07
6.33881e-05
-2.81769e-07
5.58498e-07
6.33881e-05
-5.55973e-07
5.57085e-07
6.24857e-05
-8.15567e-07
5.55972e-07
6.06952e-05
-1.05367e-06
5.59612e-07
5.8045e-05
5.77782e-07
5.45774e-05
-1.25956e-06
1.05517e-06
2.94695e-07
5.66297e-05
-1.25545e-06
8.17838e-07
2.84501e-07
5.99483e-05
5.5709e-07
2.81782e-07
6.24857e-05
2.82015e-07
2.82013e-07
6.42005e-05
6.44478e-12
2.82682e-07
6.50649e-05
-2.82002e-07
2.82678e-07
6.50649e-05
-5.57086e-07
2.82004e-07
6.42005e-05
-8.17838e-07
2.81772e-07
6.24857e-05
-1.05518e-06
2.84491e-07
5.99483e-05
2.94684e-07
5.66297e-05
-1.25546e-06
1.05595e-06
6.02969e-12
5.76635e-05
-1.25359e-06
8.19622e-07
8.41188e-12
6.09072e-05
5.58501e-07
7.20753e-12
6.33881e-05
2.82684e-07
5.31903e-12
6.50649e-05
3.46088e-12
1.8258e-12
6.59103e-05
-2.82677e-07
2.5201e-13
6.59103e-05
-5.58499e-07
-2.12688e-12
6.50649e-05
-8.19623e-07
-2.96869e-12
6.33881e-05
-1.05596e-06
-3.16101e-12
6.09072e-05
-2.67429e-12
5.76635e-05
-1.2536e-06
1.05596e-06
-2.94681e-07
5.76635e-05
-1.25359e-06
8.1962e-07
-2.84486e-07
6.09072e-05
5.58499e-07
-2.81767e-07
6.33881e-05
2.8268e-07
-2.82001e-07
6.50649e-05
1.9017e-12
-2.82676e-07
6.59103e-05
-2.82679e-07
-2.82679e-07
6.59103e-05
-5.585e-07
-2.82011e-07
6.50649e-05
-8.19624e-07
-2.81781e-07
6.33881e-05
-1.05596e-06
-2.84501e-07
6.09072e-05
-2.94696e-07
5.76635e-05
-1.2536e-06
1.05517e-06
-5.77776e-07
5.66297e-05
-1.25545e-06
8.17834e-07
-5.59606e-07
5.99483e-05
5.57085e-07
-5.55968e-07
6.24857e-05
2.82005e-07
-5.57083e-07
6.42005e-05
-1.49452e-12
-5.58497e-07
6.50649e-05
-2.82011e-07
-5.58499e-07
6.50649e-05
-5.57091e-07
-5.5709e-07
6.42005e-05
-8.1784e-07
-5.55981e-07
6.24857e-05
-1.05518e-06
-5.5962e-07
5.99483e-05
-5.77794e-07
5.66297e-05
-1.25545e-06
1.05366e-06
-8.37513e-07
5.45774e-05
-1.25955e-06
8.15562e-07
-8.17353e-07
5.8045e-05
5.5597e-07
-8.15561e-07
6.06952e-05
2.81771e-07
-8.17832e-07
6.24857e-05
-3.46166e-12
-8.1962e-07
6.33881e-05
-2.81781e-07
-8.19622e-07
6.33881e-05
-5.55982e-07
-8.17838e-07
6.24857e-05
-8.1557e-07
-8.15568e-07
6.06952e-05
-1.05367e-06
-8.17362e-07
5.8045e-05
-8.37525e-07
5.45774e-05
-1.25955e-06
1.05299e-06
-1.06398e-06
5.1537e-05
-1.26588e-06
8.17354e-07
-1.05299e-06
5.52267e-05
5.59608e-07
-1.05366e-06
5.8045e-05
2.84489e-07
-1.05517e-06
5.99483e-05
-5.02945e-12
-1.05596e-06
6.09072e-05
-2.84502e-07
-1.05596e-06
6.09072e-05
-5.59621e-07
-1.05517e-06
5.99483e-05
-8.17364e-07
-1.05367e-06
5.8045e-05
-1.053e-06
-1.053e-06
5.52267e-05
-1.06398e-06
5.1537e-05
-1.26588e-06
1.06397e-06
4.75538e-05
-1.26668e-06
-1.26668e-06
8.37512e-07
5.1537e-05
-1.26587e-06
5.77776e-07
5.45774e-05
-1.25955e-06
2.94681e-07
5.66297e-05
-1.25545e-06
-4.26331e-12
5.76635e-05
-1.25359e-06
-2.94696e-07
5.76635e-05
-1.25359e-06
-5.77794e-07
5.66297e-05
-1.25545e-06
-8.37526e-07
5.45774e-05
-1.25955e-06
-1.06398e-06
5.1537e-05
-1.26588e-06
4.75538e-05
-1.26669e-06
-1.26669e-06
1.67806e-06
1.67806e-06
4.81963e-05
-1.99928e-06
-1.99928e-06
1.31934e-06
1.66331e-06
5.22334e-05
-2.00102e-06
9.09686e-07
1.6645e-06
5.53149e-05
-1.99236e-06
4.63829e-07
1.66694e-06
5.73949e-05
-1.98632e-06
3.30375e-12
1.66823e-06
5.84427e-05
-1.98362e-06
-4.63819e-07
1.66823e-06
5.84427e-05
-1.98362e-06
-9.09681e-07
1.66694e-06
5.73949e-05
-1.98632e-06
-1.31934e-06
1.6645e-06
5.53149e-05
-1.99236e-06
-1.67806e-06
1.6633e-06
5.22334e-05
-2.00102e-06
1.67805e-06
4.81963e-05
-1.99928e-06
-1.99927e-06
1.6633e-06
1.31935e-06
5.22334e-05
-2.00102e-06
1.29008e-06
1.29009e-06
5.59732e-05
8.8272e-07
1.28729e-06
5.88296e-05
4.4858e-07
1.29074e-06
6.07586e-05
6.43686e-12
1.29347e-06
6.17306e-05
-4.4857e-07
1.29347e-06
6.17306e-05
-8.82717e-07
1.29074e-06
6.07586e-05
-1.29008e-06
1.28728e-06
5.88296e-05
-1.66331e-06
1.29008e-06
5.59732e-05
1.31934e-06
5.22334e-05
-2.00102e-06
1.6645e-06
9.09687e-07
5.53149e-05
-1.99236e-06
1.28729e-06
8.82722e-07
5.88296e-05
8.7704e-07
8.77041e-07
6.15157e-05
4.4434e-07
8.78675e-07
6.33304e-05
6.22438e-12
8.80796e-07
6.42451e-05
-4.44328e-07
8.80794e-07
6.42451e-05
-8.77034e-07
8.7867e-07
6.33304e-05
-1.28729e-06
8.77032e-07
6.15157e-05
-1.6645e-06
8.82715e-07
5.88296e-05
9.09679e-07
5.53149e-05
-1.99236e-06
1.66694e-06
4.63831e-07
5.73949e-05
-1.98632e-06
1.29074e-06
4.48581e-07
6.07586e-05
8.78674e-07
4.44342e-07
6.33304e-05
4.44652e-07
4.44653e-07
6.50685e-05
5.32071e-12
4.45649e-07
6.59447e-05
-4.44641e-07
4.45644e-07
6.59447e-05
-8.78673e-07
4.44641e-07
6.50685e-05
-1.29074e-06
4.44329e-07
6.33304e-05
-1.66694e-06
4.4857e-07
6.07586e-05
4.63818e-07
5.73949e-05
-1.98632e-06
1.66822e-06
6.53787e-12
5.84427e-05
-1.98361e-06
1.29347e-06
1.03315e-11
6.17306e-05
8.80796e-07
8.83712e-12
6.42451e-05
4.45648e-07
6.79005e-12
6.59447e-05
1.43449e-12
2.38329e-12
6.68015e-05
-4.45644e-07
1.00311e-12
6.68015e-05
-8.80796e-07
-1.93701e-12
6.59447e-05
-1.29347e-06
-2.84336e-12
6.42451e-05
-1.66823e-06
-3.16844e-12
6.17306e-05
-1.82871e-12
5.84427e-05
-1.98362e-06
1.66822e-06
-4.63813e-07
5.84427e-05
-1.98361e-06
1.29347e-06
-4.48563e-07
6.17306e-05
8.80793e-07
-4.44322e-07
6.42451e-05
4.45644e-07
-4.44636e-07
6.59447e-05
8.74788e-14
-4.45641e-07
6.68015e-05
-4.45647e-07
-4.45645e-07
6.68015e-05
-8.80798e-07
-4.4465e-07
6.59447e-05
-1.29347e-06
-4.4434e-07
6.42451e-05
-1.66823e-06
-4.48581e-07
6.17306e-05
-4.6383e-07
5.84427e-05
-1.98362e-06
1.66694e-06
-9.09672e-07
5.73949e-05
-1.98632e-06
1.29074e-06
-8.82707e-07
6.07586e-05
8.78668e-07
-8.77027e-07
6.33304e-05
4.44639e-07
-8.78667e-07
6.50685e-05
-4.22768e-12
-8.80792e-07
6.59447e-05
-4.44652e-07
-8.80795e-07
6.59447e-05
-8.78678e-07
-8.78675e-07
6.50685e-05
-1.29075e-06
-8.77042e-07
6.33304e-05
-1.66694e-06
-8.82724e-07
6.07586e-05
-9.09694e-07
5.73949e-05
-1.98632e-06
1.66449e-06
-1.31933e-06
5.53149e-05
-1.99235e-06
1.28728e-06
-1.29007e-06
5.88296e-05
8.77027e-07
-1.28728e-06
6.15157e-05
4.44325e-07
-1.29074e-06
6.33304e-05
-6.31877e-12
-1.29347e-06
6.42451e-05
-4.44343e-07
-1.29347e-06
6.42451e-05
-8.77045e-07
-1.29074e-06
6.33304e-05
-1.28729e-06
-1.28729e-06
6.15157e-05
-1.66451e-06
-1.29008e-06
5.88296e-05
-1.31934e-06
5.53149e-05
-1.99236e-06
1.6633e-06
-1.67805e-06
5.22334e-05
-2.00101e-06
1.29007e-06
-1.6633e-06
5.59732e-05
8.82708e-07
-1.6645e-06
5.88296e-05
4.48565e-07
-1.66694e-06
6.07586e-05
-7.76972e-12
-1.66823e-06
6.17306e-05
-4.48584e-07
-1.66823e-06
6.17306e-05
-8.82727e-07
-1.66694e-06
6.07586e-05
-1.29009e-06
-1.6645e-06
5.88296e-05
-1.66332e-06
-1.66331e-06
5.59732e-05
-1.67806e-06
5.22334e-05
-2.00102e-06
1.67805e-06
4.81963e-05
-1.99927e-06
-1.99927e-06
1.31933e-06
5.22334e-05
-2.00101e-06
9.09671e-07
5.53149e-05
-1.99235e-06
4.63812e-07
5.73949e-05
-1.98631e-06
-6.22488e-12
5.84427e-05
-1.98361e-06
-4.63833e-07
5.84427e-05
-1.98361e-06
-9.09696e-07
5.73949e-05
-1.98632e-06
-1.31935e-06
5.53149e-05
-1.99236e-06
-1.67806e-06
5.22334e-05
-2.00102e-06
4.81963e-05
-1.99928e-06
-1.99927e-06
2.09679e-06
2.0968e-06
4.90012e-05
-2.49928e-06
-2.49929e-06
1.64774e-06
2.0783e-06
5.31055e-05
-2.50137e-06
1.13592e-06
2.07978e-06
5.62382e-05
-2.49127e-06
5.79138e-07
2.08301e-06
5.83527e-05
-2.48407e-06
1.16165e-12
2.08477e-06
5.94179e-05
-2.48088e-06
-5.7913e-07
2.08477e-06
5.94179e-05
-2.48088e-06
-1.13591e-06
2.08301e-06
5.83527e-05
-2.48407e-06
-1.64774e-06
2.07977e-06
5.62382e-05
-2.49127e-06
-2.0968e-06
2.07829e-06
5.31055e-05
-2.50136e-06
2.0968e-06
4.90012e-05
-2.49928e-06
-2.49929e-06
2.07829e-06
1.64775e-06
5.31055e-05
-2.50136e-06
1.61131e-06
1.61132e-06
5.69071e-05
1.10219e-06
1.60767e-06
5.98108e-05
5.60013e-07
1.61207e-06
6.17717e-05
6.39167e-12
1.61557e-06
6.27598e-05
-5.60003e-07
1.61557e-06
6.27598e-05
-1.10219e-06
1.61206e-06
6.17717e-05
-1.61131e-06
1.60767e-06
5.98108e-05
-2.07829e-06
1.61131e-06
5.69071e-05
1.64773e-06
5.31055e-05
-2.50135e-06
2.07977e-06
1.13593e-06
5.62382e-05
-2.49126e-06
1.60767e-06
1.1022e-06
5.98108e-05
1.09492e-06
1.09493e-06
6.25412e-05
5.546e-07
1.09697e-06
6.43858e-05
5.69101e-12
1.09967e-06
6.53155e-05
-5.54587e-07
1.09967e-06
6.53155e-05
-1.09491e-06
1.09697e-06
6.43858e-05
-1.60767e-06
1.09491e-06
6.25412e-05
-2.07977e-06
1.10219e-06
5.98108e-05
1.13591e-06
5.62382e-05
-2.49126e-06
2.083e-06
5.79144e-07
5.83527e-05
-2.48406e-06
1.61206e-06
5.6002e-07
6.17717e-05
1.09697e-06
5.54606e-07
6.43858e-05
5.54979e-07
5.54985e-07
6.61525e-05
4.70617e-12
5.56244e-07
6.70431e-05
-5.54966e-07
5.56239e-07
6.70431e-05
-1.09697e-06
5.54969e-07
6.61525e-05
-1.61206e-06
5.54591e-07
6.43858e-05
-2.08301e-06
5.60007e-07
6.17717e-05
5.79129e-07
5.83527e-05
-2.48406e-06
2.08476e-06
9.94473e-12
5.94179e-05
-2.48087e-06
1.61556e-06
1.56124e-11
6.27598e-05
1.09966e-06
1.40711e-11
6.53155e-05
5.56238e-07
1.19666e-11
6.70431e-05
-3.41176e-13
6.50395e-12
6.7914e-05
-5.56236e-07
5.51794e-12
6.7914e-05
-1.09967e-06
1.8542e-12
6.70431e-05
-1.61556e-06
1.02449e-12
6.53155e-05
-2.08478e-06
1.08606e-12
6.27598e-05
3.43348e-12
5.94179e-05
-2.48087e-06
2.08477e-06
-5.79118e-07
5.94179e-05
-2.48087e-06
1.61556e-06
-5.59991e-07
6.27598e-05
1.09966e-06
-5.54575e-07
6.53155e-05
5.56233e-07
-5.54956e-07
6.70431e-05
-1.36745e-12
-5.56227e-07
6.7914e-05
-5.5624e-07
-5.56233e-07
6.7914e-05
-1.09967e-06
-5.54973e-07
6.70431e-05
-1.61557e-06
-5.54597e-07
6.53155e-05
-2.08478e-06
-5.60012e-07
6.27598e-05
-5.79137e-07
5.94179e-05
-2.48087e-06
2.083e-06
-1.1359e-06
5.83527e-05
-2.48406e-06
1.61206e-06
-1.10218e-06
6.17717e-05
1.09696e-06
-1.0949e-06
6.43858e-05
5.54962e-07
-1.09696e-06
6.61525e-05
-6.72357e-12
-1.09966e-06
6.70431e-05
-5.54981e-07
-1.09966e-06
6.70431e-05
-1.09697e-06
-1.09697e-06
6.61525e-05
-1.61207e-06
-1.09492e-06
6.43858e-05
-2.08301e-06
-1.1022e-06
6.17717e-05
-1.13593e-06
5.83527e-05
-2.48407e-06
2.07977e-06
-1.64772e-06
5.62382e-05
-2.49126e-06
1.60766e-06
-1.6113e-06
5.98108e-05
1.0949e-06
-1.60766e-06
6.25412e-05
5.54581e-07
-1.61205e-06
6.43858e-05
-8.7595e-12
-1.61556e-06
6.53155e-05
-5.54605e-07
-1.61556e-06
6.53155e-05
-1.09493e-06
-1.61206e-06
6.43858e-05
-1.60767e-06
-1.60767e-06
6.25412e-05
-2.07978e-06
-1.6113e-06
5.98108e-05
-1.64774e-06
5.62382e-05
-2.49127e-06
2.07828e-06
-2.09679e-06
5.31055e-05
-2.50135e-06
1.6113e-06
-2.07828e-06
5.69071e-05
1.10218e-06
-2.07977e-06
5.98108e-05
5.59995e-07
-2.083e-06
6.17717e-05
-9.86855e-12
-2.08477e-06
6.27598e-05
-5.6002e-07
-2.08477e-06
6.27598e-05
-1.1022e-06
-2.083e-06
6.17717e-05
-1.61131e-06
-2.07978e-06
5.98108e-05
-2.07831e-06
-2.0783e-06
5.69071e-05
-2.09679e-06
5.31055e-05
-2.50136e-06
2.09678e-06
4.90012e-05
-2.49927e-06
-2.49927e-06
1.64772e-06
5.31055e-05
-2.50134e-06
1.1359e-06
5.62382e-05
-2.49125e-06
5.79118e-07
5.83527e-05
-2.48406e-06
-7.00596e-12
5.94179e-05
-2.48087e-06
-5.79144e-07
5.94179e-05
-2.48087e-06
-1.13593e-06
5.83527e-05
-2.48406e-06
-1.64774e-06
5.62382e-05
-2.49126e-06
-2.09679e-06
5.31055e-05
-2.50135e-06
4.90012e-05
-2.49929e-06
-2.49928e-06
2.39566e-06
2.39567e-06
4.9922e-05
-2.85604e-06
-2.85605e-06
1.88219e-06
2.37447e-06
5.41029e-05
-2.8584e-06
1.29745e-06
2.37653e-06
5.7294e-05
-2.84763e-06
6.61483e-07
2.38066e-06
5.9448e-05
-2.83991e-06
-8.74859e-13
2.38296e-06
6.0533e-05
-2.83655e-06
-6.61474e-07
2.38296e-06
6.0533e-05
-2.83654e-06
-1.29745e-06
2.38066e-06
5.9448e-05
-2.83991e-06
-1.88218e-06
2.37652e-06
5.7294e-05
-2.84762e-06
-2.39567e-06
2.37445e-06
5.41029e-05
-2.85838e-06
2.39566e-06
4.9922e-05
-2.85604e-06
-2.85603e-06
2.37446e-06
1.8822e-06
5.41029e-05
-2.85839e-06
1.84053e-06
1.84054e-06
5.7975e-05
1.25879e-06
1.83656e-06
6.09325e-05
6.39523e-07
1.84191e-06
6.29297e-05
6.36255e-12
1.84614e-06
6.39361e-05
-6.39514e-07
1.84614e-06
6.39361e-05
-1.25879e-06
1.8419e-06
6.29297e-05
-1.84052e-06
1.83655e-06
6.09325e-05
-2.37446e-06
1.84052e-06
5.7975e-05
1.88218e-06
5.41029e-05
-2.85838e-06
2.37652e-06
1.29746e-06
5.7294e-05
-2.84762e-06
1.83655e-06
1.2588e-06
6.09325e-05
1.25053e-06
1.25054e-06
6.37132e-05
6.33331e-07
1.25308e-06
6.55919e-05
5.36361e-12
1.25631e-06
6.65387e-05
-6.33317e-07
1.25631e-06
6.65387e-05
-1.25052e-06
1.25307e-06
6.55919e-05
-1.83655e-06
1.25052e-06
6.37132e-05
-2.37652e-06
1.25879e-06
6.09325e-05
1.29745e-06
5.7294e-05
-2.84761e-06
2.38066e-06
6.61493e-07
5.9448e-05
-2.8399e-06
1.8419e-06
6.39535e-07
6.29297e-05
1.25307e-06
6.33343e-07
6.55919e-05
6.3385e-07
6.33862e-07
6.7391e-05
4.14218e-12
6.35374e-07
6.82979e-05
-6.33836e-07
6.35367e-07
6.82979e-05
-1.25307e-06
6.33842e-07
6.7391e-05
-1.8419e-06
6.33324e-07
6.55919e-05
-2.38066e-06
6.39521e-07
6.29297e-05
6.61476e-07
5.9448e-05
-2.8399e-06
2.38295e-06
1.26299e-11
6.0533e-05
-2.83654e-06
1.84613e-06
2.08202e-11
6.39361e-05
1.2563e-06
1.92859e-11
6.65387e-05
6.35362e-07
1.71534e-11
6.82979e-05
-2.41717e-12
1.04164e-11
6.91847e-05
-6.35362e-07
1.01012e-11
6.91847e-05
-1.2563e-06
5.79779e-12
6.82979e-05
-1.84613e-06
5.03562e-12
6.65387e-05
-2.38296e-06
4.90206e-12
6.39361e-05
9.39198e-12
6.0533e-05
-2.83653e-06
2.38295e-06
-6.61458e-07
6.0533e-05
-2.83654e-06
1.84613e-06
-6.39497e-07
6.39361e-05
1.25629e-06
-6.33301e-07
6.65387e-05
6.35355e-07
-6.33821e-07
6.82979e-05
-2.98979e-12
-6.35347e-07
6.91847e-05
-6.35367e-07
-6.35354e-07
6.91847e-05
-1.2563e-06
-6.33842e-07
6.82979e-05
-1.84613e-06
-6.33327e-07
6.65387e-05
-2.38296e-06
-6.39521e-07
6.39361e-05
-6.61478e-07
6.0533e-05
-2.83654e-06
2.38065e-06
-1.29743e-06
5.9448e-05
-2.8399e-06
1.84189e-06
-1.25877e-06
6.29297e-05
1.25306e-06
-1.25051e-06
6.55919e-05
6.33829e-07
-1.25305e-06
6.7391e-05
-9.60223e-12
-1.25629e-06
6.82979e-05
-6.33855e-07
-1.25629e-06
6.82979e-05
-1.25307e-06
-1.25306e-06
6.7391e-05
-1.84191e-06
-1.25053e-06
6.55919e-05
-2.38066e-06
-1.25879e-06
6.29297e-05
-1.29746e-06
5.9448e-05
-2.8399e-06
2.37651e-06
-1.88216e-06
5.7294e-05
-2.84761e-06
1.83654e-06
-1.8405e-06
6.09325e-05
1.25051e-06
-1.83653e-06
6.37132e-05
6.33309e-07
-1.84189e-06
6.55919e-05
-1.14144e-11
-1.84612e-06
6.65387e-05
-6.33341e-07
-1.84613e-06
6.65387e-05
-1.25054e-06
-1.8419e-06
6.55919e-05
-1.83655e-06
-1.83654e-06
6.37132e-05
-2.37653e-06
-1.84051e-06
6.09325e-05
-1.88218e-06
5.7294e-05
-2.84762e-06
2.37444e-06
-2.39565e-06
5.41029e-05
-2.85837e-06
1.84051e-06
-2.37445e-06
5.7975e-05
1.25878e-06
-2.37651e-06
6.09325e-05
6.39502e-07
-2.38065e-06
6.29297e-05
-1.21948e-11
-2.38295e-06
6.39361e-05
-6.39535e-07
-2.38295e-06
6.39361e-05
-1.2588e-06
-2.38065e-06
6.29297e-05
-1.84052e-06
-2.37652e-06
6.09325e-05
-2.37448e-06
-2.37447e-06
5.7975e-05
-2.39565e-06
5.41029e-05
-2.85839e-06
2.39564e-06
4.9922e-05
-2.85602e-06
-2.85602e-06
1.88216e-06
5.41029e-05
-2.85837e-06
1.29743e-06
5.7294e-05
-2.8476e-06
6.61457e-07
5.9448e-05
-2.83989e-06
-7.5237e-12
6.0533e-05
-2.83653e-06
-6.61491e-07
6.0533e-05
-2.83653e-06
-1.29747e-06
5.9448e-05
-2.83989e-06
-1.88219e-06
5.7294e-05
-2.84761e-06
-2.39566e-06
5.41029e-05
-2.85838e-06
4.9922e-05
-2.85604e-06
-2.85603e-06
2.60114e-06
2.60115e-06
5.09222e-05
-3.10124e-06
-3.10125e-06
2.04337e-06
2.57762e-06
5.51863e-05
-3.10325e-06
1.40854e-06
2.58037e-06
5.84408e-05
-3.09236e-06
7.1813e-07
2.58548e-06
6.06375e-05
-3.08463e-06
-2.04597e-12
2.58835e-06
6.17441e-05
-3.08132e-06
-7.18119e-07
2.58835e-06
6.17441e-05
-3.08132e-06
-1.40853e-06
2.58547e-06
6.06375e-05
-3.08462e-06
-2.04335e-06
2.58035e-06
5.84408e-05
-3.09235e-06
-2.60113e-06
2.57759e-06
5.51863e-05
-3.10322e-06
2.60113e-06
5.09222e-05
-3.10122e-06
-3.10123e-06
2.57761e-06
2.04338e-06
5.51863e-05
-3.10324e-06
1.99769e-06
1.9977e-06
5.91348e-05
1.36616e-06
1.99369e-06
6.21507e-05
6.9404e-07
2.00001e-06
6.41874e-05
8.38176e-12
2.00494e-06
6.52136e-05
-6.94026e-07
2.00493e-06
6.52136e-05
-1.36615e-06
2e-06
6.41873e-05
-1.99768e-06
1.99368e-06
6.21507e-05
-2.57759e-06
1.99768e-06
5.91348e-05
2.04335e-06
5.51863e-05
-3.10321e-06
2.58036e-06
1.40855e-06
5.84408e-05
-3.09235e-06
1.99368e-06
1.36617e-06
6.21507e-05
1.3573e-06
1.35731e-06
6.49859e-05
6.87334e-07
1.36038e-06
6.69014e-05
6.67043e-12
1.36413e-06
6.78668e-05
-6.87314e-07
1.36413e-06
6.78668e-05
-1.35728e-06
1.36037e-06
6.69014e-05
-1.99367e-06
1.35729e-06
6.49859e-05
-2.58035e-06
1.36616e-06
6.21507e-05
1.40853e-06
5.84408e-05
-3.09233e-06
2.58547e-06
7.18143e-07
6.06375e-05
-3.08462e-06
2e-06
6.94054e-07
6.41874e-05
1.36037e-06
6.87349e-07
6.69014e-05
6.88043e-07
6.88058e-07
6.87356e-05
4.75931e-12
6.89818e-07
6.96602e-05
-6.88024e-07
6.89809e-07
6.96602e-05
-1.36037e-06
6.88032e-07
6.87356e-05
-1.99999e-06
6.87325e-07
6.69014e-05
-2.58547e-06
6.94036e-07
6.41873e-05
7.18121e-07
6.06375e-05
-3.0846e-06
2.58834e-06
1.47499e-11
6.17441e-05
-3.08132e-06
2.00493e-06
2.60004e-11
6.52136e-05
1.36412e-06
2.43765e-11
6.78668e-05
6.89802e-07
2.21672e-11
6.96602e-05
-4.09624e-12
1.3777e-11
7.05643e-05
-6.89802e-07
1.41557e-11
7.05643e-05
-1.36412e-06
8.68566e-12
6.96602e-05
-2.00493e-06
7.71794e-12
6.78668e-05
-2.58835e-06
7.2748e-12
6.52135e-05
1.32625e-11
6.17441e-05
-3.08131e-06
2.58835e-06
-7.181e-07
6.17441e-05
-3.08132e-06
2.00493e-06
-6.94007e-07
6.52136e-05
1.36412e-06
-6.87295e-07
6.78668e-05
6.89793e-07
-6.88005e-07
6.96602e-05
-4.31486e-12
-6.89783e-07
7.05643e-05
-6.89808e-07
-6.89791e-07
7.05643e-05
-1.36413e-06
-6.88032e-07
6.96602e-05
-2.00493e-06
-6.87328e-07
6.78668e-05
-2.58836e-06
-6.94036e-07
6.52135e-05
-7.18123e-07
6.17441e-05
-3.08131e-06
2.58547e-06
-1.40851e-06
6.06375e-05
-3.08461e-06
1.99999e-06
-1.36613e-06
6.41873e-05
1.36036e-06
-1.35727e-06
6.69014e-05
6.88015e-07
-1.36036e-06
6.87356e-05
-1.26867e-11
-1.36411e-06
6.96602e-05
-6.8805e-07
-1.36411e-06
6.96602e-05
-1.36038e-06
-1.36037e-06
6.87356e-05
-2e-06
-1.35729e-06
6.69014e-05
-2.58548e-06
-1.36616e-06
6.41873e-05
-1.40855e-06
6.06375e-05
-3.08461e-06
2.58035e-06
-2.04334e-06
5.84408e-05
-3.09234e-06
1.99366e-06
-1.99766e-06
6.21507e-05
1.35727e-06
-1.99366e-06
6.49859e-05
6.87305e-07
-1.99998e-06
6.69014e-05
-1.44672e-11
-2.00492e-06
6.78668e-05
-6.87346e-07
-2.00492e-06
6.78668e-05
-1.35731e-06
-1.99999e-06
6.69014e-05
-1.99368e-06
-1.99367e-06
6.49859e-05
-2.58037e-06
-1.99767e-06
6.21507e-05
-2.04335e-06
5.84408e-05
-3.09235e-06
2.57758e-06
-2.60113e-06
5.51863e-05
-3.10321e-06
1.99767e-06
-2.57759e-06
5.91348e-05
1.36614e-06
-2.58035e-06
6.21507e-05
6.94013e-07
-2.58546e-06
6.41873e-05
-1.48441e-11
-2.58835e-06
6.52135e-05
-6.94054e-07
-2.58835e-06
6.52135e-05
-1.36617e-06
-2.58546e-06
6.41873e-05
-1.99769e-06
-2.58036e-06
6.21507e-05
-2.57763e-06
-2.57762e-06
5.91348e-05
-2.60112e-06
5.51863e-05
-3.10323e-06
2.60112e-06
5.09222e-05
-3.10122e-06
-3.10122e-06
2.04333e-06
5.51863e-05
-3.10321e-06
1.40851e-06
5.84408e-05
-3.09233e-06
7.18099e-07
6.06375e-05
-3.0846e-06
-7.95535e-12
6.17441e-05
-3.0813e-06
-7.1814e-07
6.17441e-05
-3.0813e-06
-1.40856e-06
6.06375e-05
-3.0846e-06
-2.04337e-06
5.84408e-05
-3.09234e-06
-2.60113e-06
5.51863e-05
-3.10322e-06
5.09222e-05
-3.10124e-06
-3.10123e-06
2.72146e-06
2.72147e-06
5.19688e-05
-3.24478e-06
-3.24478e-06
2.13771e-06
2.69626e-06
5.632e-05
-3.24618e-06
1.47358e-06
2.69969e-06
5.96408e-05
-3.2356e-06
7.51314e-07
2.70569e-06
6.18823e-05
-3.22817e-06
-1.11167e-12
2.70911e-06
6.30113e-05
-3.22508e-06
-7.51295e-07
2.70911e-06
6.30113e-05
-3.22507e-06
-1.47355e-06
2.70568e-06
6.18823e-05
-3.22816e-06
-2.13767e-06
2.69967e-06
5.96408e-05
-3.23558e-06
-2.72144e-06
2.69622e-06
5.63199e-05
-3.24614e-06
2.72144e-06
5.19688e-05
-3.24474e-06
-3.24474e-06
2.69626e-06
2.13771e-06
5.632e-05
-3.24618e-06
2.08944e-06
2.08945e-06
6.03485e-05
1.42882e-06
2.08559e-06
6.34254e-05
7.25859e-07
2.09275e-06
6.55033e-05
1.26748e-11
2.09829e-06
6.65502e-05
-7.25837e-07
2.09828e-06
6.65502e-05
-1.4288e-06
2.09274e-06
6.55033e-05
-2.0894e-06
2.08558e-06
6.34254e-05
-2.69622e-06
2.08942e-06
6.03484e-05
2.13768e-06
5.63199e-05
-3.24613e-06
2.69968e-06
1.47359e-06
5.96408e-05
-3.2356e-06
2.08558e-06
1.42883e-06
6.34254e-05
1.41969e-06
1.41971e-06
6.63177e-05
7.18878e-07
1.42328e-06
6.82717e-05
1.03275e-11
1.42746e-06
6.92565e-05
-7.18848e-07
1.42746e-06
6.92565e-05
-1.41967e-06
1.42327e-06
6.82717e-05
-2.08556e-06
1.41968e-06
6.63177e-05
-2.69966e-06
1.42882e-06
6.34254e-05
1.47356e-06
5.96407e-05
-3.23556e-06
2.70568e-06
7.51328e-07
6.18823e-05
-3.22817e-06
2.09274e-06
7.25876e-07
6.55033e-05
1.42326e-06
7.18896e-07
6.82717e-05
7.19784e-07
7.19803e-07
7.01426e-05
7.83621e-12
7.21774e-07
7.10857e-05
-7.19755e-07
7.21764e-07
7.10857e-05
-1.42326e-06
7.1977e-07
7.01426e-05
-2.09272e-06
7.18867e-07
6.82717e-05
-2.70567e-06
7.25855e-07
6.55033e-05
7.51303e-07
6.18822e-05
-3.22814e-06
2.7091e-06
1.72275e-11
6.30113e-05
-3.22508e-06
2.09828e-06
3.24044e-11
6.65502e-05
1.42745e-06
3.09902e-11
6.92565e-05
7.21754e-07
2.90248e-11
7.10857e-05
-3.57567e-12
1.89699e-11
7.20078e-05
-7.21749e-07
2.04947e-11
7.20078e-05
-1.42745e-06
1.39605e-11
7.10857e-05
-2.09826e-06
1.29949e-11
6.92565e-05
-2.70911e-06
1.22312e-11
6.65502e-05
2.06588e-11
6.30113e-05
-3.22506e-06
2.70911e-06
-7.51276e-07
6.30113e-05
-3.22507e-06
2.09827e-06
-7.25817e-07
6.65502e-05
1.42744e-06
-7.18827e-07
6.92565e-05
7.21742e-07
-7.19733e-07
7.10857e-05
-3.35289e-12
-7.21726e-07
7.20078e-05
-7.21758e-07
-7.21736e-07
7.20078e-05
-1.42745e-06
-7.19765e-07
7.10857e-05
-2.09827e-06
-7.18865e-07
6.92565e-05
-2.70911e-06
-7.2585e-07
6.65502e-05
-7.513e-07
6.30113e-05
-3.22506e-06
2.70568e-06
-1.47354e-06
6.18823e-05
-3.22816e-06
2.09273e-06
-1.42879e-06
6.55033e-05
1.42325e-06
-1.41965e-06
6.82717e-05
7.19747e-07
-1.42324e-06
7.01426e-05
-1.3882e-11
-1.42743e-06
7.10857e-05
-7.19788e-07
-1.42744e-06
7.10857e-05
-1.42327e-06
-1.42325e-06
7.01426e-05
-2.09274e-06
-1.41968e-06
6.82717e-05
-2.70569e-06
-1.42881e-06
6.55033e-05
-1.47358e-06
6.18822e-05
-3.22815e-06
2.69967e-06
-2.13766e-06
5.96408e-05
-3.23558e-06
2.08556e-06
-2.0894e-06
6.34254e-05
1.41966e-06
-2.08556e-06
6.63177e-05
7.18842e-07
-2.09271e-06
6.82717e-05
-1.56408e-11
-2.09825e-06
6.92565e-05
-7.18889e-07
-2.09826e-06
6.92565e-05
-1.4197e-06
-2.09272e-06
6.82717e-05
-2.08558e-06
-2.08557e-06
6.63177e-05
-2.6997e-06
-2.0894e-06
6.34254e-05
-2.13768e-06
5.96408e-05
-3.23558e-06
2.69622e-06
-2.72144e-06
5.63199e-05
-3.24614e-06
2.0894e-06
-2.69622e-06
6.03484e-05
1.42879e-06
-2.69966e-06
6.34254e-05
7.25827e-07
-2.70568e-06
6.55033e-05
-1.5743e-11
-2.70911e-06
6.65502e-05
-7.25872e-07
-2.7091e-06
6.65502e-05
-1.42883e-06
-2.70568e-06
6.55033e-05
-2.08942e-06
-2.69968e-06
6.34254e-05
-2.69628e-06
-2.69626e-06
6.03485e-05
-2.72143e-06
5.63199e-05
-3.24615e-06
2.72143e-06
5.19688e-05
-3.24474e-06
-3.24474e-06
2.13766e-06
5.63199e-05
-3.24613e-06
1.47354e-06
5.96407e-05
-3.23556e-06
7.51275e-07
6.18822e-05
-3.22814e-06
-6.54984e-12
6.30113e-05
-3.22505e-06
-7.51321e-07
6.30113e-05
-3.22505e-06
-1.4736e-06
6.18822e-05
-3.22814e-06
-2.13769e-06
5.96408e-05
-3.23557e-06
-2.72145e-06
5.63199e-05
-3.24614e-06
5.19688e-05
-3.24476e-06
-3.24475e-06
2.76741e-06
2.76741e-06
5.30331e-05
-3.29961e-06
-3.29961e-06
2.17366e-06
2.74124e-06
5.74728e-05
-3.30037e-06
1.49838e-06
2.74516e-06
6.08611e-05
-3.29026e-06
7.63986e-07
2.75179e-06
6.31481e-05
-3.28324e-06
3.97406e-12
2.7556e-06
6.43001e-05
-3.28039e-06
-7.6395e-07
2.7556e-06
6.43001e-05
-3.28038e-06
-1.49833e-06
2.75178e-06
6.31481e-05
-3.28322e-06
-2.17359e-06
2.74513e-06
6.08611e-05
-3.29023e-06
-2.76737e-06
2.74119e-06
5.74728e-05
-3.30031e-06
2.76738e-06
5.30331e-05
-3.29954e-06
-3.29955e-06
2.74124e-06
2.17366e-06
5.74728e-05
-3.30037e-06
2.12415e-06
2.12415e-06
6.15827e-05
1.4525e-06
2.1205e-06
6.47217e-05
7.37884e-07
2.12823e-06
6.68415e-05
2.19721e-11
2.13417e-06
6.79096e-05
-7.37843e-07
2.13415e-06
6.79095e-05
-1.45246e-06
2.12821e-06
6.68415e-05
-2.12408e-06
2.12048e-06
6.47217e-05
-2.74117e-06
2.12411e-06
6.15826e-05
2.17361e-06
5.74728e-05
-3.30029e-06
2.74516e-06
1.49838e-06
6.08611e-05
-3.29027e-06
2.1205e-06
1.45251e-06
6.47217e-05
1.44333e-06
1.44334e-06
6.7672e-05
7.30807e-07
1.44726e-06
6.96652e-05
1.86572e-11
1.45174e-06
7.06697e-05
-7.30756e-07
1.45173e-06
7.06697e-05
-1.44328e-06
1.44725e-06
6.96652e-05
-2.12045e-06
1.4433e-06
6.7672e-05
-2.74511e-06
1.45249e-06
6.47217e-05
1.49835e-06
6.08611e-05
-3.2902e-06
2.75179e-06
7.63997e-07
6.31481e-05
-3.28324e-06
2.12823e-06
7.37898e-07
6.68415e-05
1.44725e-06
7.30824e-07
6.96652e-05
7.31863e-07
7.31882e-07
7.15734e-05
1.53082e-11
7.33995e-07
7.25353e-05
-7.31814e-07
7.33982e-07
7.25353e-05
-1.44722e-06
7.31841e-07
7.15734e-05