/*--------------------------------*- C++ -*----------------------------------*\
| =========                 |                                                 |
| \\      /  F ield         | OpenFOAM: The Open Source CFD Toolbox           |
|  \\    /   O peration     | Version:  2412                                  |
|   \\  /    A nd           | Website:  www.openfoam.com                      |
|    \\/     M anipulation  |                                                 |
\*---------------------------------------------------------------------------*/
FoamFile
{
    version     2.0;
    format      ascii;
    arch        "LSB;label=32;scalar=64";
    class       volVectorField;
    location    "0.4";
    object      U;
}
// * * * * * * * * * * * * * * * * * * * * * * * * * * * * * * * * * * * * * //

dimensions      [0 1 -1 0 0 0 0];

internalField   nonuniform List<vector> 
15000
(
(0.000414824 0.000414832 1.00037)
(0.000318433 0.000443338 1.00037)
(0.000228537 0.000465681 1.00037)
(0.000137932 0.000480256 1.00037)
(4.6112e-05 0.000487375 1.00037)
(-4.6113e-05 0.000487375 1.00037)
(-0.000137934 0.000480258 1.00037)
(-0.000228539 0.000465684 1.00037)
(-0.000318433 0.000443343 1.00037)
(-0.000414819 0.000414843 1.00037)
(0.000443331 0.00031844 1.00037)
(0.000335391 0.000335397 1.00038)
(0.0002391 0.000353652 1.00038)
(0.000143603 0.000366505 1.00038)
(4.79018e-05 0.000372961 1.00038)
(-4.79002e-05 0.000372961 1.00038)
(-0.000143603 0.000366506 1.00038)
(-0.000239101 0.000353654 1.00038)
(-0.000335391 0.000335401 1.00038)
(-0.000443326 0.000318445 1.00037)
(0.000465674 0.000228542 1.00037)
(0.000353646 0.000239105 1.00038)
(0.000251464 0.000251469 1.00038)
(0.000150563 0.000260884 1.00038)
(5.01306e-05 0.00026581 1.00038)
(-5.01271e-05 0.000265811 1.00038)
(-0.000150562 0.000260885 1.00038)
(-0.000251464 0.00025147 1.00038)
(-0.000353646 0.000239106 1.00038)
(-0.000465672 0.000228542 1.00037)
(0.000480249 0.000137937 1.00037)
(0.000366498 0.000143608 1.00038)
(0.00026088 0.000150567 1.00038)
(0.000156127 0.000156131 1.00038)
(5.1953e-05 0.000159135 1.00038)
(-5.19492e-05 0.000159134 1.00038)
(-0.000156125 0.00015613 1.00038)
(-0.00026088 0.000150566 1.00038)
(-0.000366499 0.000143607 1.00038)
(-0.000480248 0.000137934 1.00037)
(0.000487367 4.61172e-05 1.00037)
(0.000372954 4.79063e-05 1.00038)
(0.000265805 5.01344e-05 1.00038)
(0.00015913 5.19563e-05 1.00038)
(5.29516e-05 5.29548e-05 1.00038)
(-5.29494e-05 5.29541e-05 1.00038)
(-0.000159129 5.19538e-05 1.00038)
(-0.000265806 5.01313e-05 1.00038)
(-0.000372955 4.79031e-05 1.00038)
(-0.000487367 4.61124e-05 1.00037)
(0.000487367 -4.6107e-05 1.00037)
(0.000372954 -4.78951e-05 1.00038)
(0.000265805 -5.01228e-05 1.00038)
(0.000159129 -5.19457e-05 1.00038)
(5.29506e-05 -5.29464e-05 1.00038)
(-5.29503e-05 -5.29474e-05 1.00038)
(-0.00015913 -5.19489e-05 1.00038)
(-0.000265806 -5.01272e-05 1.00038)
(-0.000372955 -4.78993e-05 1.00038)
(-0.000487368 -4.61124e-05 1.00037)
(0.000480249 -0.000137927 1.00037)
(0.000366499 -0.000143598 1.00038)
(0.000260879 -0.000150557 1.00038)
(0.000156125 -0.000156121 1.00038)
(5.19498e-05 -0.000159126 1.00038)
(-5.1952e-05 -0.000159127 1.00038)
(-0.000156127 -0.000156124 1.00038)
(-0.000260881 -0.000150561 1.00038)
(-0.000366501 -0.000143602 1.00038)
(-0.00048025 -0.000137933 1.00037)
(0.000465675 -0.000228533 1.00037)
(0.000353646 -0.000239096 1.00038)
(0.000251462 -0.00025146 1.00038)
(0.00015056 -0.000260876 1.00038)
(5.01266e-05 -0.000265802 1.00038)
(-5.01308e-05 -0.000265803 1.00038)
(-0.000150564 -0.000260878 1.00038)
(-0.000251466 -0.000251463 1.00038)
(-0.000353649 -0.0002391 1.00038)
(-0.000465677 -0.000228538 1.00037)
(0.00044333 -0.000318429 1.00037)
(0.000335391 -0.000335389 1.00038)
(0.000239099 -0.000353644 1.00038)
(0.0001436 -0.000366497 1.00038)
(4.78982e-05 -0.000372953 1.00038)
(-4.79032e-05 -0.000372953 1.00038)
(-0.000143605 -0.000366498 1.00038)
(-0.000239103 -0.000353646 1.00038)
(-0.000335395 -0.000335392 1.00038)
(-0.000443334 -0.000318434 1.00037)
(0.000414823 -0.000414821 1.00037)
(0.000318431 -0.000443329 1.00037)
(0.000228535 -0.000465673 1.00037)
(0.000137929 -0.000480248 1.00037)
(4.61095e-05 -0.000487366 1.00037)
(-4.61148e-05 -0.000487366 1.00037)
(-0.000137935 -0.000480248 1.00037)
(-0.000228541 -0.000465675 1.00037)
(-0.000318436 -0.000443332 1.00037)
(-0.000414827 -0.000414825 1.00037)
(0.00112737 0.00112738 1.00589)
(0.00087597 0.00120827 1.0059)
(0.000627994 0.00127119 1.00591)
(0.00037857 0.00131304 1.00591)
(0.000126529 0.00133377 1.00591)
(-0.000126525 0.00133377 1.00591)
(-0.000378567 0.00131304 1.00591)
(-0.000627994 0.00127118 1.00591)
(-0.00087597 0.00120827 1.0059)
(-0.00112737 0.00112737 1.00589)
(0.00120827 0.000875976 1.0059)
(0.000922861 0.000922867 1.00592)
(0.000657544 0.000973064 1.00593)
(0.000394428 0.00100919 1.00593)
(0.000131522 0.00102759 1.00593)
(-0.000131516 0.00102759 1.00593)
(-0.000394425 0.00100919 1.00593)
(-0.000657545 0.000973062 1.00593)
(-0.000922864 0.000922863 1.00592)
(-0.00120827 0.00087597 1.0059)
(0.00127118 0.000627999 1.00591)
(0.000973059 0.000657549 1.00593)
(0.000691331 0.000691335 1.00594)
(0.000413418 0.000717639 1.00595)
(0.000137594 0.000731588 1.00595)
(-0.000137586 0.000731587 1.00595)
(-0.000413414 0.000717637 1.00595)
(-0.000691331 0.000691332 1.00594)
(-0.000973063 0.000657546 1.00593)
(-0.00127118 0.000627996 1.00591)
(0.00131304 0.000378573 1.00591)
(0.00100918 0.000394432 1.00593)
(0.000717636 0.000413421 1.00595)
(0.000428959 0.000428961 1.00595)
(0.000142682 0.000437464 1.00596)
(-0.000142676 0.000437462 1.00596)
(-0.000428955 0.000428956 1.00595)
(-0.000717636 0.000413416 1.00595)
(-0.00100919 0.000394427 1.00593)
(-0.00131304 0.000378569 1.00591)
(0.00133376 0.000126533 1.00591)
(0.00102759 0.000131525 1.00593)
(0.000731584 0.000137597 1.00595)
(0.000437461 0.000142684 1.00596)
(0.000145509 0.000145512 1.00596)
(-0.000145507 0.00014551 1.00596)
(-0.00043746 0.000142678 1.00596)
(-0.000731586 0.000137589 1.00595)
(-0.00102759 0.000131518 1.00593)
(-0.00133377 0.000126526 1.00591)
(0.00133376 -0.00012652 1.00591)
(0.00102759 -0.000131511 1.00593)
(0.000731583 -0.000137582 1.00595)
(0.000437459 -0.000142673 1.00596)
(0.000145507 -0.000145505 1.00596)
(-0.000145509 -0.000145507 1.00596)
(-0.000437462 -0.000142679 1.00596)
(-0.000731587 -0.000137591 1.00595)
(-0.00102759 -0.000131519 1.00593)
(-0.00133377 -0.000126528 1.00591)
(0.00131304 -0.000378561 1.00591)
(0.00100918 -0.000394418 1.00593)
(0.000717633 -0.000413408 1.00595)
(0.000428953 -0.00042895 1.00595)
(0.000142675 -0.000437456 1.00596)
(-0.000142682 -0.000437458 1.00596)
(-0.00042896 -0.000428956 1.00595)
(-0.000717638 -0.000413416 1.00595)
(-0.00100919 -0.000394427 1.00593)
(-0.00131304 -0.000378569 1.00591)
(0.00127118 -0.000627986 1.00591)
(0.000973057 -0.000657536 1.00593)
(0.000691327 -0.000691324 1.00594)
(0.000413411 -0.00071763 1.00595)
(0.000137585 -0.00073158 1.00595)
(-0.000137594 -0.000731582 1.00595)
(-0.00041342 -0.000717634 1.00595)
(-0.000691334 -0.00069133 1.00594)
(-0.000973065 -0.000657543 1.00593)
(-0.00127119 -0.000627994 1.00591)
(0.00120826 -0.000875962 1.0059)
(0.000922857 -0.000922856 1.00592)
(0.000657539 -0.000973055 1.00593)
(0.000394421 -0.00100918 1.00593)
(0.000131513 -0.00102759 1.00593)
(-0.000131523 -0.00102759 1.00593)
(-0.000394431 -0.00100918 1.00593)
(-0.000657548 -0.000973059 1.00593)
(-0.000922868 -0.000922862 1.00592)
(-0.00120827 -0.000875969 1.0059)
(0.00112736 -0.00112736 1.00589)
(0.000875962 -0.00120826 1.0059)
(0.000627987 -0.00127118 1.00591)
(0.000378562 -0.00131304 1.00591)
(0.000126521 -0.00133376 1.00591)
(-0.000126532 -0.00133376 1.00591)
(-0.000378573 -0.00131304 1.00591)
(-0.000627999 -0.00127118 1.00591)
(-0.000875975 -0.00120827 1.0059)
(-0.00112738 -0.00112737 1.00589)
(0.00177778 0.00177779 1.01756)
(0.00138049 0.00190814 1.01758)
(0.000988186 0.00200813 1.01759)
(0.000595335 0.00207453 1.01759)
(0.000198931 0.00210741 1.0176)
(-0.000198929 0.00210741 1.0176)
(-0.000595335 0.00207453 1.01759)
(-0.000988189 0.00200812 1.01759)
(-0.00138049 0.00190813 1.01758)
(-0.00177778 0.00177778 1.01756)
(0.00190813 0.0013805 1.01758)
(0.00145811 0.00145812 1.0176)
(0.00103721 0.00153781 1.01762)
(0.000621737 0.0015948 1.01763)
(0.000207265 0.00162379 1.01763)
(-0.000207261 0.00162379 1.01763)
(-0.000621736 0.0015948 1.01763)
(-0.00103721 0.00153781 1.01762)
(-0.00145812 0.00145811 1.0176)
(-0.00190813 0.00138049 1.01758)
(0.00200812 0.000988192 1.01759)
(0.0015378 0.00103722 1.01762)
(0.00109076 0.00109077 1.01764)
(0.000651878 0.00113211 1.01765)
(0.000216917 0.00115398 1.01766)
(-0.00021691 0.00115398 1.01766)
(-0.000651875 0.00113211 1.01765)
(-0.00109076 0.00109076 1.01764)
(-0.00153781 0.00103721 1.01762)
(-0.00200813 0.000988187 1.01759)
(0.00207452 0.000595341 1.01759)
(0.00159479 0.000621742 1.01763)
(0.00113211 0.000651882 1.01765)
(0.000676308 0.000676312 1.01767)
(0.000224922 0.000689626 1.01768)
(-0.000224916 0.000689624 1.01768)
(-0.000676306 0.000676306 1.01767)
(-0.00113211 0.000651874 1.01765)
(-0.0015948 0.000621735 1.01763)
(-0.00207453 0.000595333 1.01759)
(0.0021074 0.000198937 1.0176)
(0.00162379 0.000207271 1.01763)
(0.00115397 0.000216922 1.01766)
(0.000689622 0.000224926 1.01768)
(0.000229349 0.000229353 1.01769)
(-0.00022935 0.00022935 1.01769)
(-0.000689624 0.000224917 1.01768)
(-0.00115398 0.000216911 1.01766)
(-0.00162379 0.000207261 1.01763)
(-0.00210741 0.000198928 1.0176)
(0.0021074 -0.000198922 1.0176)
(0.00162379 -0.000207253 1.01763)
(0.00115397 -0.000216904 1.01766)
(0.000689619 -0.000224911 1.01768)
(0.000229347 -0.000229345 1.01769)
(-0.000229352 -0.000229348 1.01769)
(-0.000689626 -0.00022492 1.01768)
(-0.00115398 -0.000216915 1.01766)
(-0.0016238 -0.000207264 1.01763)
(-0.00210741 -0.000198931 1.0176)
(0.00207452 -0.000595325 1.01759)
(0.00159479 -0.000621726 1.01763)
(0.0011321 -0.000651866 1.01765)
(0.0006763 -0.000676299 1.01767)
(0.000224913 -0.000689617 1.01768)
(-0.000224924 -0.00068962 1.01768)
(-0.000676312 -0.000676306 1.01767)
(-0.00113211 -0.000651877 1.01765)
(-0.0015948 -0.000621736 1.01763)
(-0.00207453 -0.000595335 1.01759)
(0.00200812 -0.000988177 1.01759)
(0.0015378 -0.0010372 1.01762)
(0.00109075 -0.00109075 1.01764)
(0.000651868 -0.0011321 1.01765)
(0.000216905 -0.00115397 1.01766)
(-0.000216921 -0.00115397 1.01766)
(-0.000651883 -0.00113211 1.01765)
(-0.00109077 -0.00109076 1.01764)
(-0.00153781 -0.00103721 1.01762)
(-0.00200813 -0.000988186 1.01759)
(0.00190812 -0.00138048 1.01758)
(0.0014581 -0.0014581 1.0176)
(0.0010372 -0.0015378 1.01762)
(0.000621728 -0.00159479 1.01763)
(0.000207254 -0.00162379 1.01763)
(-0.00020727 -0.00162379 1.01763)
(-0.000621743 -0.0015948 1.01763)
(-0.00103722 -0.00153781 1.01762)
(-0.00145812 -0.00145811 1.0176)
(-0.00190814 -0.00138049 1.01758)
(0.00177777 -0.00177777 1.01756)
(0.00138048 -0.00190812 1.01758)
(0.000988176 -0.00200812 1.01759)
(0.000595325 -0.00207452 1.01759)
(0.000198921 -0.0021074 1.0176)
(-0.000198938 -0.0021074 1.0176)
(-0.000595342 -0.00207452 1.01759)
(-0.000988194 -0.00200812 1.01759)
(-0.0013805 -0.00190813 1.01758)
(-0.00177779 -0.00177778 1.01756)
(0.00221902 0.00221903 1.03325)
(0.00172465 0.00238274 1.03326)
(0.00123403 0.00250812 1.03327)
(0.000743246 0.00259154 1.03328)
(0.000248331 0.0026329 1.03328)
(-0.000248329 0.0026329 1.03328)
(-0.000743246 0.00259154 1.03328)
(-0.00123403 0.00250811 1.03327)
(-0.00172465 0.00238272 1.03326)
(-0.00221902 0.00221902 1.03325)
(0.00238272 0.00172467 1.03326)
(0.00182169 0.0018217 1.03328)
(0.00129522 0.00192122 1.03329)
(0.000776124 0.00199254 1.0333)
(0.000258695 0.00202887 1.03331)
(-0.000258689 0.00202887 1.03331)
(-0.000776122 0.00199254 1.0333)
(-0.00129522 0.00192121 1.03329)
(-0.00182169 0.00182169 1.03328)
(-0.00238272 0.00172465 1.03326)
(0.00250811 0.00123404 1.03327)
(0.00192121 0.00129523 1.03329)
(0.00136195 0.00136196 1.03331)
(0.00081364 0.00141362 1.03332)
(0.000270699 0.00144097 1.03333)
(-0.000270691 0.00144097 1.03333)
(-0.000813635 0.00141362 1.03332)
(-0.00136196 0.00136196 1.03331)
(-0.00192121 0.00129523 1.03329)
(-0.00250811 0.00123403 1.03327)
(0.00259153 0.000743255 1.03328)
(0.00199253 0.000776133 1.0333)
(0.00141361 0.000813649 1.03332)
(0.000844141 0.000844149 1.03334)
(0.000280689 0.000860796 1.03334)
(-0.000280682 0.000860792 1.03334)
(-0.000844138 0.00084414 1.03334)
(-0.00141362 0.000813638 1.03332)
(-0.00199253 0.000776125 1.0333)
(-0.00259154 0.000743246 1.03327)
(0.00263289 0.000248341 1.03328)
(0.00202886 0.000258704 1.03331)
(0.00144096 0.000270708 1.03333)
(0.000860787 0.000280697 1.03334)
(0.000286223 0.000286231 1.03335)
(-0.000286224 0.000286227 1.03335)
(-0.000860789 0.000280686 1.03334)
(-0.00144097 0.000270694 1.03333)
(-0.00202887 0.000258693 1.03331)
(-0.00263289 0.000248331 1.03328)
(0.00263289 -0.000248318 1.03328)
(0.00202886 -0.000258678 1.03331)
(0.00144096 -0.00027068 1.03333)
(0.000860783 -0.000280673 1.03334)
(0.000286219 -0.000286215 1.03335)
(-0.000286227 -0.000286219 1.03335)
(-0.000860792 -0.000280684 1.03334)
(-0.00144097 -0.000270695 1.03333)
(-0.00202887 -0.00025869 1.03331)
(-0.00263289 -0.000248328 1.03328)
(0.00259153 -0.000743232 1.03328)
(0.00199253 -0.000776109 1.0333)
(0.00141361 -0.000813623 1.03332)
(0.000844131 -0.000844126 1.03334)
(0.000280677 -0.000860779 1.03334)
(-0.000280693 -0.000860783 1.03334)
(-0.000844146 -0.000844137 1.03334)
(-0.00141362 -0.000813636 1.03332)
(-0.00199254 -0.000776121 1.0333)
(-0.00259154 -0.000743244 1.03328)
(0.00250811 -0.00123402 1.03327)
(0.0019212 -0.00129521 1.03329)
(0.00136195 -0.00136194 1.03331)
(0.000813627 -0.0014136 1.03332)
(0.000270684 -0.00144096 1.03333)
(-0.000270705 -0.00144096 1.03333)
(-0.000813646 -0.00141361 1.03332)
(-0.00136196 -0.00136195 1.03331)
(-0.00192122 -0.00129522 1.03329)
(-0.00250812 -0.00123403 1.03327)
(0.00238271 -0.00172464 1.03326)
(0.00182168 -0.00182168 1.03328)
(0.00129521 -0.0019212 1.03329)
(0.000776112 -0.00199252 1.0333)
(0.000258681 -0.00202886 1.03331)
(-0.000258701 -0.00202886 1.03331)
(-0.000776131 -0.00199253 1.0333)
(-0.00129523 -0.00192121 1.03329)
(-0.0018217 -0.00182169 1.03328)
(-0.00238273 -0.00172465 1.03326)
(0.00221901 -0.00221901 1.03325)
(0.00172464 -0.00238271 1.03326)
(0.00123402 -0.0025081 1.03327)
(0.000743233 -0.00259153 1.03327)
(0.000248319 -0.00263288 1.03328)
(-0.000248339 -0.00263288 1.03328)
(-0.000743254 -0.00259153 1.03328)
(-0.00123404 -0.00250811 1.03327)
(-0.00172466 -0.00238272 1.03326)
(-0.00221903 -0.00221902 1.03325)
(0.00253372 0.00253373 1.05182)
(0.00197029 0.00272135 1.05182)
(0.00140955 0.00286524 1.05182)
(0.000848837 0.00296113 1.05182)
(0.000283597 0.00300872 1.05182)
(-0.000283592 0.00300872 1.05182)
(-0.000848833 0.00296113 1.05182)
(-0.00140955 0.00286522 1.05182)
(-0.00197028 0.00272132 1.05182)
(-0.00253372 0.00253371 1.05182)
(0.00272133 0.0019703 1.05182)
(0.00208102 0.00208104 1.05182)
(0.00147931 0.00219505 1.05183)
(0.000886253 0.00227695 1.05183)
(0.000295377 0.00231872 1.05183)
(-0.000295369 0.00231872 1.05183)
(-0.000886249 0.00227694 1.05183)
(-0.00147931 0.00219504 1.05183)
(-0.00208102 0.00208102 1.05182)
(-0.00272132 0.00197028 1.05182)
(0.00286522 0.00140956 1.05182)
(0.00219503 0.00147932 1.05183)
(0.00155568 0.00155569 1.05183)
(0.000929147 0.00161498 1.05183)
(0.000309094 0.00164642 1.05184)
(-0.000309081 0.00164642 1.05184)
(-0.000929139 0.00161497 1.05183)
(-0.00155568 0.00155568 1.05183)
(-0.00219503 0.00147931 1.05183)
(-0.00286522 0.00140955 1.05182)
(0.00296112 0.000848848 1.05182)
(0.00227694 0.000886265 1.05183)
(0.00161497 0.000929159 1.05183)
(0.000964139 0.00096415 1.05184)
(0.000320551 0.00098328 1.05184)
(-0.000320541 0.000983275 1.05184)
(-0.000964133 0.000964139 1.05184)
(-0.00161497 0.000929145 1.05183)
(-0.00227694 0.000886255 1.05183)
(-0.00296112 0.000848839 1.05182)
(0.00300871 0.000283608 1.05182)
(0.00231871 0.000295389 1.05183)
(0.00164641 0.000309106 1.05184)
(0.000983269 0.000320562 1.05184)
(0.000326908 0.00032692 1.05184)
(-0.000326909 0.000326915 1.05184)
(-0.00098327 0.000320548 1.05184)
(-0.00164641 0.000309088 1.05184)
(-0.00231872 0.000295375 1.05183)
(-0.00300871 0.000283597 1.05182)
(0.00300871 -0.000283579 1.05182)
(0.00231871 -0.000295354 1.05183)
(0.0016464 -0.000309067 1.05184)
(0.000983263 -0.000320528 1.05184)
(0.000326904 -0.000326897 1.05184)
(-0.000326913 -0.000326901 1.05184)
(-0.000983274 -0.000320543 1.05184)
(-0.00164641 -0.000309086 1.05184)
(-0.00231872 -0.000295369 1.05183)
(-0.00300872 -0.000283589 1.05182)
(0.00296112 -0.000848818 1.05182)
(0.00227693 -0.000886232 1.05183)
(0.00161496 -0.000929124 1.05183)
(0.000964125 -0.000964119 1.05184)
(0.000320535 -0.000983256 1.05184)
(-0.000320556 -0.000983261 1.05184)
(-0.000964145 -0.000964132 1.05184)
(-0.00161497 -0.00092914 1.05183)
(-0.00227694 -0.000886247 1.05183)
(-0.00296113 -0.000848831 1.05182)
(0.00286521 -0.00140953 1.05182)
(0.00219502 -0.00147929 1.05183)
(0.00155567 -0.00155566 1.05183)
(0.00092913 -0.00161495 1.05183)
(0.000309074 -0.0016464 1.05184)
(-0.0003091 -0.0016464 1.05184)
(-0.000929154 -0.00161496 1.05183)
(-0.00155569 -0.00155567 1.05183)
(-0.00219504 -0.0014793 1.05183)
(-0.00286523 -0.00140954 1.05182)
(0.00272131 -0.00197027 1.05182)
(0.00208101 -0.00208101 1.05182)
(0.0014793 -0.00219502 1.05183)
(0.000886238 -0.00227693 1.05183)
(0.00029536 -0.00231871 1.05183)
(-0.000295384 -0.00231871 1.05183)
(-0.000886261 -0.00227693 1.05183)
(-0.00147932 -0.00219503 1.05183)
(-0.00208104 -0.00208102 1.05182)
(-0.00272134 -0.00197028 1.05182)
(0.0025337 -0.0025337 1.05182)
(0.00197026 -0.00272131 1.05182)
(0.00140953 -0.00286521 1.05182)
(0.00084882 -0.00296111 1.05182)
(0.000283581 -0.0030087 1.05182)
(-0.000283604 -0.00300871 1.05182)
(-0.000848845 -0.00296112 1.05182)
(-0.00140956 -0.00286522 1.05182)
(-0.0019703 -0.00272133 1.05182)
(-0.00253373 -0.00253372 1.05182)
(0.00274909 0.00274911 1.07243)
(0.00213919 0.00295307 1.07243)
(0.00153035 0.00311005 1.07242)
(0.000921494 0.00321492 1.07241)
(0.000307861 0.00326703 1.07241)
(-0.000307851 0.00326703 1.07241)
(-0.000921484 0.00321491 1.07241)
(-0.00153034 0.00311003 1.07242)
(-0.00213917 0.00295304 1.07243)
(-0.00274907 0.00274908 1.07243)
(0.00295306 0.00213921 1.07243)
(0.00225867 0.00225868 1.07241)
(0.00160555 0.00238284 1.0724)
(0.000961743 0.00247237 1.07239)
(0.000320517 0.00251812 1.07239)
(-0.000320501 0.00251812 1.07239)
(-0.000961731 0.00247236 1.07239)
(-0.00160554 0.00238283 1.0724)
(-0.00225866 0.00225866 1.07241)
(-0.00295303 0.00213917 1.07243)
(0.00311004 0.00153036 1.07242)
(0.00238283 0.00160556 1.0724)
(0.00168866 0.00168867 1.07239)
(0.00100838 0.00175348 1.07238)
(0.000335419 0.00178791 1.07238)
(-0.000335397 0.00178791 1.07238)
(-0.00100836 0.00175347 1.07238)
(-0.00168865 0.00168866 1.07239)
(-0.00238282 0.00160555 1.0724)
(-0.00311002 0.00153035 1.07242)
(0.00321491 0.000921505 1.07241)
(0.00247236 0.000961755 1.07239)
(0.00175347 0.00100839 1.07238)
(0.00104661 0.00104663 1.07237)
(0.000347933 0.00106758 1.07237)
(-0.000347916 0.00106757 1.07237)
(-0.0010466 0.00104661 1.07237)
(-0.00175346 0.00100837 1.07238)
(-0.00247236 0.000961741 1.07239)
(-0.0032149 0.00092149 1.07241)
(0.00326702 0.000307873 1.07241)
(0.00251811 0.000320529 1.07239)
(0.0017879 0.000335432 1.07238)
(0.00106757 0.000347945 1.07237)
(0.000354894 0.000354907 1.07236)
(-0.000354892 0.000354901 1.07236)
(-0.00106756 0.000347926 1.07237)
(-0.0017879 0.000335408 1.07238)
(-0.00251811 0.000320511 1.07239)
(-0.00326702 0.000307858 1.07241)
(0.00326702 -0.000307838 1.07241)
(0.00251811 -0.000320486 1.07239)
(0.0017879 -0.000335383 1.07238)
(0.00106756 -0.000347902 1.07237)
(0.000354888 -0.000354878 1.07236)
(-0.000354898 -0.000354884 1.07236)
(-0.00106757 -0.000347921 1.07237)
(-0.00178791 -0.000335407 1.07238)
(-0.00251811 -0.000320505 1.07239)
(-0.00326702 -0.000307851 1.07241)
(0.00321491 -0.000921469 1.07241)
(0.00247235 -0.000961715 1.07239)
(0.00175346 -0.00100835 1.07238)
(0.00104659 -0.00104659 1.07237)
(0.000347911 -0.00106755 1.07237)
(-0.000347936 -0.00106755 1.07237)
(-0.00104662 -0.0010466 1.07237)
(-0.00175347 -0.00100837 1.07238)
(-0.00247237 -0.000961733 1.07239)
(-0.00321492 -0.000921485 1.07241)
(0.00311003 -0.00153033 1.07242)
(0.00238282 -0.00160552 1.0724)
(0.00168865 -0.00168864 1.07239)
(0.00100836 -0.00175345 1.07238)
(0.000335392 -0.00178789 1.07238)
(-0.000335423 -0.00178789 1.07238)
(-0.00100839 -0.00175345 1.07238)
(-0.00168867 -0.00168865 1.07239)
(-0.00238284 -0.00160554 1.0724)
(-0.00311005 -0.00153034 1.07242)
(0.00295303 -0.00213916 1.07243)
(0.00225865 -0.00225865 1.07241)
(0.00160553 -0.00238281 1.0724)
(0.000961722 -0.00247235 1.07239)
(0.000320493 -0.0025181 1.07239)
(-0.000320522 -0.0025181 1.07239)
(-0.000961749 -0.00247235 1.07239)
(-0.00160555 -0.00238283 1.0724)
(-0.00225868 -0.00225867 1.07241)
(-0.00295306 -0.00213918 1.07243)
(0.00274906 -0.00274907 1.07243)
(0.00213916 -0.00295302 1.07243)
(0.00153033 -0.00311002 1.07242)
(0.000921471 -0.0032149 1.07241)
(0.000307841 -0.00326701 1.07241)
(-0.000307868 -0.00326701 1.07241)
(-0.0009215 -0.0032149 1.07241)
(-0.00153036 -0.00311003 1.07242)
(-0.00213919 -0.00295305 1.07243)
(-0.0027491 -0.00274909 1.07243)
(0.00287417 0.00287417 1.09438)
(0.00223812 0.00308774 1.09436)
(0.00160117 0.00325273 1.09434)
(0.000964066 0.00336323 1.09433)
(0.00032208 0.0034182 1.09432)
(-0.000322058 0.0034182 1.09432)
(-0.000964043 0.00336321 1.09433)
(-0.00160115 0.00325271 1.09434)
(-0.00223808 0.00308769 1.09436)
(-0.00287412 0.00287413 1.09438)
(0.00308773 0.00223813 1.09436)
(0.00236226 0.00236227 1.09432)
(0.00167926 0.00249258 1.0943)
(0.00100578 0.00258689 1.09428)
(0.000335179 0.00263518 1.09427)
(-0.000335149 0.00263518 1.09427)
(-0.00100576 0.00258688 1.09428)
(-0.00167923 0.00249256 1.0943)
(-0.00236223 0.00236225 1.09432)
(-0.00308768 0.00223809 1.09436)
(0.00325273 0.00160118 1.09434)
(0.00249257 0.00167927 1.0943)
(0.00176644 0.00176645 1.09426)
(0.00105466 0.00183473 1.09425)
(0.000350787 0.0018711 1.09424)
(-0.000350751 0.00187109 1.09424)
(-0.00105463 0.00183472 1.09424)
(-0.00176641 0.00176644 1.09426)
(-0.00249254 0.00167925 1.09429)
(-0.00325269 0.00160117 1.09434)
(0.00336322 0.000964075 1.09433)
(0.00258688 0.00100579 1.09428)
(0.00183472 0.00105467 1.09425)
(0.00109494 0.00109495 1.09422)
(0.000363965 0.00111707 1.09421)
(-0.000363935 0.00111706 1.09421)
(-0.00109491 0.00109493 1.09422)
(-0.0018347 0.00105465 1.09424)
(-0.00258687 0.00100577 1.09428)
(-0.00336319 0.000964058 1.09433)
(0.00341819 0.000322089 1.09432)
(0.00263517 0.00033519 1.09427)
(0.00187108 0.000350799 1.09424)
(0.00111706 0.000363977 1.09421)
(0.000371314 0.000371327 1.0942)
(-0.000371304 0.00037132 1.0942)
(-0.00111705 0.000363953 1.09421)
(-0.00187107 0.00035077 1.09424)
(-0.00263516 0.000335168 1.09427)
(-0.00341818 0.000322073 1.09432)
(0.00341819 -0.000322047 1.09432)
(0.00263517 -0.000335137 1.09427)
(0.00187108 -0.000350737 1.09424)
(0.00111705 -0.000363921 1.09421)
(0.000371305 -0.00037129 1.0942)
(-0.000371312 -0.000371297 1.0942)
(-0.00111706 -0.000363945 1.09421)
(-0.00187108 -0.000350767 1.09424)
(-0.00263517 -0.000335158 1.09427)
(-0.00341819 -0.000322061 1.09432)
(0.00336321 -0.000964031 1.09433)
(0.00258687 -0.00100574 1.09428)
(0.00183471 -0.00105462 1.09424)
(0.00109491 -0.0010949 1.09422)
(0.000363936 -0.00111704 1.09421)
(-0.000363962 -0.00111704 1.09421)
(-0.00109493 -0.00109492 1.09422)
(-0.00183472 -0.00105464 1.09425)
(-0.00258688 -0.00100576 1.09428)
(-0.00336322 -0.000964048 1.09433)
(0.0032527 -0.00160114 1.09434)
(0.00249255 -0.00167922 1.0943)
(0.00176642 -0.00176641 1.09426)
(0.00105463 -0.00183469 1.09424)
(0.000350751 -0.00187106 1.09424)
(-0.000350785 -0.00187107 1.09424)
(-0.00105466 -0.0018347 1.09425)
(-0.00176644 -0.00176642 1.09426)
(-0.00249257 -0.00167923 1.0943)
(-0.00325272 -0.00160116 1.09434)
(0.00308769 -0.00223807 1.09436)
(0.00236223 -0.00236223 1.09432)
(0.00167923 -0.00249254 1.09429)
(0.00100575 -0.00258686 1.09428)
(0.000335148 -0.00263516 1.09427)
(-0.000335178 -0.00263516 1.09427)
(-0.00100578 -0.00258687 1.09428)
(-0.00167925 -0.00249255 1.0943)
(-0.00236227 -0.00236225 1.09432)
(-0.00308772 -0.00223809 1.09436)
(0.00287412 -0.00287412 1.09438)
(0.00223807 -0.00308768 1.09436)
(0.00160114 -0.00325269 1.09434)
(0.000964036 -0.00336319 1.09432)
(0.000322052 -0.00341818 1.09432)
(-0.00032208 -0.00341818 1.09432)
(-0.000964067 -0.0033632 1.09433)
(-0.00160117 -0.00325271 1.09434)
(-0.00223811 -0.00308771 1.09436)
(-0.00287417 -0.00287415 1.09438)
(0.00292087 0.00292087 1.11697)
(0.00227592 0.00313811 1.11694)
(0.00162828 0.00330648 1.11691)
(0.000980335 0.00341947 1.11689)
(0.000327515 0.00347574 1.11688)
(-0.000327472 0.00347573 1.11688)
(-0.000980288 0.00341945 1.11689)
(-0.00162823 0.00330645 1.11691)
(-0.00227584 0.00313805 1.11694)
(-0.0029208 0.00292082 1.11697)
(0.00313811 0.00227592 1.11694)
(0.00240137 0.00240137 1.11688)
(0.00170715 0.00253418 1.11684)
(0.0010224 0.00263062 1.11681)
(0.00034071 0.00268007 1.1168)
(-0.000340657 0.00268006 1.1168)
(-0.00102235 0.0026306 1.11681)
(-0.00170709 0.00253415 1.11684)
(-0.0024013 0.00240133 1.11688)
(-0.00313802 0.00227586 1.11694)
(0.00330648 0.00162828 1.11691)
(0.00253418 0.00170715 1.11684)
(0.00179597 0.00179597 1.11679)
(0.00107216 0.0018658 1.11676)
(0.000356592 0.00190306 1.11674)
(-0.00035653 0.00190305 1.11674)
(-0.00107211 0.00186579 1.11676)
(-0.00179592 0.00179596 1.11679)
(-0.00253412 0.00170713 1.11684)
(-0.00330641 0.00162826 1.11691)
(0.00341947 0.000980336 1.11689)
(0.00263061 0.0010224 1.11681)
(0.0018658 0.00107217 1.11676)
(0.00111334 0.00111335 1.11672)
(0.000370061 0.00113602 1.1167)
(-0.000370009 0.00113601 1.1167)
(-0.00111329 0.00111332 1.11672)
(-0.00186576 0.00107214 1.11676)
(-0.00263057 0.00102238 1.11681)
(-0.00341942 0.000980315 1.11689)
(0.00347574 0.000327518 1.11688)
(0.00268007 0.000340715 1.1168)
(0.00190305 0.000356598 1.11674)
(0.00113601 0.000370069 1.1167)
(0.000377588 0.000377597 1.11669)
(-0.000377562 0.000377589 1.11669)
(-0.00113598 0.000370039 1.1167)
(-0.00190302 0.000356562 1.11674)
(-0.00268004 0.000340689 1.1168)
(-0.0034757 0.000327499 1.11688)
(0.00347574 -0.000327468 1.11688)
(0.00268006 -0.000340652 1.1168)
(0.00190304 -0.000356523 1.11674)
(0.001136 -0.00037 1.1167)
(0.000377577 -0.000377552 1.11669)
(-0.000377572 -0.00037756 1.11669)
(-0.00113599 -0.000370029 1.1167)
(-0.00190303 -0.000356558 1.11674)
(-0.00268005 -0.000340677 1.1168)
(-0.00347571 -0.000327483 1.11688)
(0.00341945 -0.000980285 1.11689)
(0.0026306 -0.00102235 1.11681)
(0.00186578 -0.0010721 1.11676)
(0.00111331 -0.00111329 1.11672)
(0.000370024 -0.00113597 1.1167)
(-0.000370045 -0.00113598 1.1167)
(-0.00111333 -0.00111331 1.11672)
(-0.00186578 -0.00107213 1.11676)
(-0.0026306 -0.00102237 1.11681)
(-0.00341944 -0.000980303 1.11689)
(0.00330645 -0.00162823 1.11691)
(0.00253415 -0.00170709 1.11684)
(0.00179594 -0.00179592 1.11679)
(0.00107212 -0.00186576 1.11676)
(0.000356544 -0.00190302 1.11674)
(-0.000356576 -0.00190302 1.11674)
(-0.00107215 -0.00186577 1.11676)
(-0.00179595 -0.00179594 1.11679)
(-0.00253416 -0.00170711 1.11684)
(-0.00330646 -0.00162825 1.11691)
(0.00313805 -0.00227585 1.11694)
(0.00240132 -0.00240132 1.11688)
(0.00170711 -0.00253413 1.11684)
(0.00102236 -0.00263058 1.11681)
(0.000340669 -0.00268004 1.1168)
(-0.000340695 -0.00268004 1.1168)
(-0.00102239 -0.00263059 1.11681)
(-0.00170713 -0.00253415 1.11684)
(-0.00240136 -0.00240135 1.11688)
(-0.00313809 -0.00227587 1.11694)
(0.00292081 -0.00292081 1.11697)
(0.00227585 -0.00313804 1.11694)
(0.00162824 -0.00330643 1.11691)
(0.000980294 -0.00341943 1.11689)
(0.000327478 -0.00347571 1.11688)
(-0.000327502 -0.00347571 1.11688)
(-0.000980321 -0.00341944 1.11689)
(-0.00162827 -0.00330645 1.11691)
(-0.00227589 -0.00313808 1.11694)
(-0.00292086 -0.00292084 1.11697)
(0.00290678 0.00290676 1.13967)
(0.0022661 0.00312301 1.13962)
(0.00162131 0.00329103 1.13958)
(0.000976097 0.00340397 1.13956)
(0.000326105 0.00346026 1.13954)
(-0.000326031 0.00346025 1.13954)
(-0.000976018 0.00340394 1.13956)
(-0.00162123 0.00329099 1.13958)
(-0.00226598 0.00312294 1.13962)
(-0.00290666 0.0029067 1.13967)
(0.00312303 0.00226609 1.13962)
(0.00239025 0.00239024 1.13954)
(0.00169932 0.00252263 1.13949)
(0.00101764 0.00261901 1.13945)
(0.000339124 0.0026685 1.13943)
(-0.000339038 0.00266849 1.13943)
(-0.00101756 0.00261899 1.13945)
(-0.00169922 0.00252259 1.13949)
(-0.00239015 0.00239019 1.13954)
(-0.00312289 0.00226601 1.13962)
(0.00329105 0.0016213 1.13958)
(0.00252264 0.00169931 1.13949)
(0.00178782 0.00178781 1.13942)
(0.00106719 0.00185761 1.13937)
(0.000354929 0.0018949 1.13935)
(-0.000354833 0.00189489 1.13935)
(-0.0010671 0.00185759 1.13937)
(-0.00178774 0.00178779 1.13942)
(-0.00252255 0.00169928 1.13949)
(-0.00329094 0.00162127 1.13958)
(0.00340398 0.000976084 1.13956)
(0.00261903 0.00101763 1.13945)
(0.00185762 0.00106719 1.13937)
(0.00110834 0.00110834 1.13932)
(0.000368384 0.00113103 1.1393)
(-0.000368301 0.00113101 1.1393)
(-0.00110826 0.0011083 1.13932)
(-0.00185754 0.00106715 1.13937)
(-0.00261895 0.00101761 1.13945)
(-0.00340389 0.000976059 1.13956)
(0.00346028 0.000326092 1.13954)
(0.00266851 0.000339114 1.13943)
(0.0018949 0.000354922 1.13935)
(0.00113103 0.00036838 1.1393)
(0.000375914 0.000375914 1.13927)
(-0.000375866 0.000375903 1.13927)
(-0.00113097 0.000368344 1.1393)
(-0.00189485 0.000354879 1.13935)
(-0.00266846 0.000339084 1.13943)
(-0.00346021 0.000326071 1.13954)
(0.00346027 -0.000326042 1.13954)
(0.0026685 -0.000339047 1.13943)
(0.00189489 -0.000354839 1.13935)
(0.00113101 -0.000368305 1.1393)
(0.0003759 -0.000375865 1.13927)
(-0.000375879 -0.000375875 1.13927)
(-0.00113099 -0.000368339 1.1393)
(-0.00189486 -0.000354881 1.13935)
(-0.00266847 -0.000339076 1.13943)
(-0.00346022 -0.000326058 1.13954)
(0.00340396 -0.000976032 1.13956)
(0.002619 -0.00101757 1.13945)
(0.00185759 -0.00106711 1.13937)
(0.0011083 -0.00110827 1.13932)
(0.000368336 -0.00113098 1.1393)