/*--------------------------------*- C++ -*----------------------------------*\
| =========                 |                                                 |
| \\      /  F ield         | OpenFOAM: The Open Source CFD Toolbox           |
|  \\    /   O peration     | Version:  2412                                  |
|   \\  /    A nd           | Website:  www.openfoam.com                      |
|    \\/     M anipulation  |                                                 |
\*---------------------------------------------------------------------------*/
FoamFile
{
    version     2.0;
    format      ascii;
    arch        "LSB;label=32;scalar=64";
    class       surfaceScalarField;
    location    "1.6";
    object      phi;
}
// * * * * * * * * * * * * * * * * * * * * * * * * * * * * * * * * * * * * * //

dimensions      [0 3 -1 0 0 0 0];

oriented        oriented;

internalField   nonuniform List<scalar> 
43700
(
1.28093e-07
1.28093e-07
5.28818e-07
-1.57493e-07
-1.57493e-07
9.32775e-08
1.11344e-07
5.68163e-07
-1.35307e-07
6.16298e-08
1.02385e-07
5.97587e-07
-1.28893e-07
3.05412e-08
9.63456e-08
6.17174e-07
-1.22719e-07
-4.52019e-15
9.35329e-08
6.26992e-07
-1.20055e-07
-3.05412e-08
9.35329e-08
6.26992e-07
-1.20055e-07
-6.16298e-08
9.63456e-08
6.17174e-07
-1.22719e-07
-9.32775e-08
1.02385e-07
5.97587e-07
-1.28893e-07
-1.28093e-07
1.11344e-07
5.68163e-07
-1.35307e-07
1.28093e-07
5.28818e-07
-1.57493e-07
-1.57493e-07
1.11344e-07
9.32775e-08
5.68163e-07
-1.35307e-07
8.29736e-08
8.29736e-08
6.02584e-07
5.49487e-08
7.57601e-08
6.2834e-07
2.72983e-08
7.09386e-08
6.45554e-07
-8.7253e-16
6.86142e-08
6.54189e-07
-2.72983e-08
6.86142e-08
6.54189e-07
-5.49487e-08
7.09386e-08
6.45554e-07
-8.29736e-08
7.57601e-08
6.2834e-07
-1.11344e-07
8.29736e-08
6.02584e-07
9.32775e-08
5.68163e-07
-1.35307e-07
1.02385e-07
6.16298e-08
5.97587e-07
-1.28893e-07
7.57601e-08
5.49487e-08
6.2834e-07
4.99412e-08
4.99412e-08
6.51511e-07
2.47718e-08
4.66063e-08
6.67064e-07
-5.37561e-16
4.49828e-08
6.74881e-07
-2.47718e-08
4.49828e-08
6.74881e-07
-4.99412e-08
4.66063e-08
6.67064e-07
-7.57601e-08
4.99412e-08
6.51511e-07
-1.02385e-07
5.49487e-08
6.2834e-07
6.16298e-08
5.97587e-07
-1.28893e-07
9.63456e-08
3.05412e-08
6.17174e-07
-1.22719e-07
7.09386e-08
2.72983e-08
6.45554e-07
4.66063e-08
2.47718e-08
6.67064e-07
2.30795e-08
2.30795e-08
6.81556e-07
2.31021e-16
2.22514e-08
6.88853e-07
-2.30795e-08
2.22514e-08
6.88853e-07
-4.66063e-08
2.30795e-08
6.81556e-07
-7.09386e-08
2.47718e-08
6.67064e-07
-9.63456e-08
2.72983e-08
6.45554e-07
3.05412e-08
6.17174e-07
-1.22719e-07
9.35329e-08
-4.34473e-15
6.26992e-07
-1.20055e-07
6.86142e-08
-4.16004e-15
6.54189e-07
4.49828e-08
-2.44185e-15
6.74881e-07
2.22514e-08
1.54844e-15
6.88853e-07
2.27406e-15
2.68414e-15
6.95895e-07
-2.22514e-08
3.17242e-15
6.95895e-07
-4.49828e-08
3.61361e-15
6.88853e-07
-6.86142e-08
6.84627e-15
6.74881e-07
-9.35329e-08
8.18698e-15
6.54189e-07
-6.31589e-17
6.26992e-07
-1.20055e-07
9.35329e-08
-3.05412e-08
6.26992e-07
-1.20055e-07
6.86142e-08
-2.72983e-08
6.54189e-07
4.49828e-08
-2.47718e-08
6.74881e-07
2.22514e-08
-2.30795e-08
6.88853e-07
2.36192e-15
-2.22514e-08
6.95895e-07
-2.22514e-08
-2.22514e-08
6.95895e-07
-4.49828e-08
-2.30795e-08
6.88853e-07
-6.86142e-08
-2.47718e-08
6.74881e-07
-9.35329e-08
-2.72983e-08
6.54189e-07
-3.05412e-08
6.26992e-07
-1.20055e-07
9.63456e-08
-6.16298e-08
6.17174e-07
-1.22719e-07
7.09386e-08
-5.49487e-08
6.45554e-07
4.66063e-08
-4.99412e-08
6.67064e-07
2.30795e-08
-4.66063e-08
6.81556e-07
3.02229e-15
-4.49828e-08
6.88853e-07
-2.30795e-08
-4.49828e-08
6.88853e-07
-4.66063e-08
-4.66063e-08
6.81556e-07
-7.09386e-08
-4.99412e-08
6.67064e-07
-9.63456e-08
-5.49487e-08
6.45554e-07
-6.16298e-08
6.17174e-07
-1.22719e-07
1.02385e-07
-9.32775e-08
5.97587e-07
-1.28893e-07
7.57601e-08
-8.29736e-08
6.2834e-07
4.99412e-08
-7.57601e-08
6.51511e-07
2.47718e-08
-7.09386e-08
6.67064e-07
5.83325e-15
-6.86142e-08
6.74881e-07
-2.47718e-08
-6.86142e-08
6.74881e-07
-4.99412e-08
-7.09386e-08
6.67064e-07
-7.57601e-08
-7.57601e-08
6.51511e-07
-1.02385e-07
-8.29736e-08
6.2834e-07
-9.32775e-08
5.97587e-07
-1.28893e-07
1.11344e-07
-1.28093e-07
5.68163e-07
-1.35307e-07
8.29736e-08
-1.11344e-07
6.02584e-07
5.49487e-08
-1.02385e-07
6.2834e-07
2.72983e-08
-9.63456e-08
6.45554e-07
6.7915e-15
-9.35329e-08
6.54189e-07
-2.72983e-08
-9.35329e-08
6.54189e-07
-5.49487e-08
-9.63456e-08
6.45554e-07
-8.29736e-08
-1.02385e-07
6.2834e-07
-1.11344e-07
-1.11344e-07
6.02584e-07
-1.28093e-07
5.68163e-07
-1.35307e-07
1.28093e-07
5.28818e-07
-1.57493e-07
-1.57493e-07
9.32775e-08
5.68163e-07
-1.35307e-07
6.16298e-08
5.97587e-07
-1.28893e-07
3.05412e-08
6.17174e-07
-1.22719e-07
2.1587e-15
6.26992e-07
-1.20055e-07
-3.05412e-08
6.26992e-07
-1.20055e-07
-6.16298e-08
6.17174e-07
-1.22719e-07
-9.32775e-08
5.97587e-07
-1.28893e-07
-1.28093e-07
5.68163e-07
-1.35307e-07
5.28818e-07
-1.57493e-07
-1.57493e-07
4.89064e-08
4.89064e-08
5.40811e-07
-5.49028e-08
-5.49028e-08
3.89973e-08
4.87429e-08
5.82981e-07
-5.36514e-08
2.73549e-08
4.9278e-08
6.14751e-07
-5.47993e-08
1.40403e-08
4.93444e-08
6.36029e-07
-5.48845e-08
-2.28897e-15
4.94253e-08
6.46729e-07
-5.51228e-08
-1.40403e-08
4.94253e-08
6.46729e-07
-5.51227e-08
-2.73549e-08
4.93444e-08
6.36029e-07
-5.48845e-08
-3.89973e-08
4.9278e-08
6.14751e-07
-5.47993e-08
-4.89065e-08
4.8743e-08
5.82981e-07
-5.36514e-08
4.89064e-08
5.40811e-07
-5.49028e-08
-5.49028e-08
4.8743e-08
3.89973e-08
5.82981e-07
-5.36514e-08
3.974e-08
3.97399e-08
6.2059e-07
2.81061e-08
4.0219e-08
6.49033e-07
1.45274e-08
4.03218e-08
6.68155e-07
2.85958e-16
4.03649e-08
6.77777e-07
-1.45274e-08
4.03649e-08
6.77777e-07
-2.81061e-08
4.03217e-08
6.68155e-07
-3.97399e-08
4.0219e-08
6.49033e-07
-4.87429e-08
3.974e-08
6.2059e-07
3.89973e-08
5.82981e-07
-5.36514e-08
4.9278e-08
2.73549e-08
6.14751e-07
-5.47994e-08
4.0219e-08
2.81061e-08
6.49033e-07
2.84361e-08
2.84361e-08
6.75077e-07
1.47036e-08
2.85009e-08
6.92618e-07
8.41705e-16
2.85089e-08
7.01441e-07
-1.47036e-08
2.85089e-08
7.01441e-07
-2.84361e-08
2.85009e-08
6.92618e-07
-4.0219e-08
2.84361e-08
6.75077e-07
-4.9278e-08
2.81061e-08
6.49033e-07
2.73549e-08
6.14751e-07
-5.47993e-08
4.93444e-08
1.40403e-08
6.36029e-07
-5.48845e-08
4.03218e-08
1.45274e-08
6.68155e-07
2.85009e-08
1.47036e-08
6.92618e-07
1.47339e-08
1.47339e-08
7.0909e-07
1.84505e-15
1.47304e-08
7.17365e-07
-1.47339e-08
1.47304e-08
7.17365e-07
-2.85009e-08
1.47339e-08
7.0909e-07
-4.03218e-08
1.47036e-08
6.92618e-07
-4.93444e-08
1.45275e-08
6.68155e-07
1.40403e-08
6.36029e-07
-5.48845e-08
4.94253e-08
-2.11646e-15
6.46729e-07
-5.51227e-08
4.03649e-08
-3.7145e-15
6.77777e-07
2.85089e-08
-9.92219e-16
7.01441e-07
1.47304e-08
2.62789e-15
7.17365e-07
2.92623e-15
3.3285e-15
7.25356e-07
-1.47304e-08
2.72312e-15
7.25356e-07
-2.85089e-08
2.37403e-15
7.17365e-07
-4.03649e-08
7.37881e-15
7.01441e-07
-4.94253e-08
7.60111e-15
6.77777e-07
-3.46956e-16
6.46729e-07
-5.51227e-08
4.94253e-08
-1.40403e-08
6.46729e-07
-5.51227e-08
4.03649e-08
-1.45275e-08
6.77777e-07
2.85089e-08
-1.47036e-08
7.01441e-07
1.47304e-08
-1.47339e-08
7.17365e-07
2.07256e-15
-1.47304e-08
7.25356e-07
-1.47304e-08
-1.47304e-08
7.25356e-07
-2.85089e-08
-1.47339e-08
7.17365e-07
-4.03649e-08
-1.47036e-08
7.01441e-07
-4.94253e-08
-1.45274e-08
6.77777e-07
-1.40403e-08
6.46729e-07
-5.51228e-08
4.93444e-08
-2.73549e-08
6.36029e-07
-5.48845e-08
4.03217e-08
-2.81061e-08
6.68155e-07
2.85009e-08
-2.84361e-08
6.92618e-07
1.47339e-08
-2.85009e-08
7.0909e-07
2.6777e-15
-2.85089e-08
7.17365e-07
-1.47339e-08
-2.85089e-08
7.17365e-07
-2.85009e-08
-2.85009e-08
7.0909e-07
-4.03218e-08
-2.84361e-08
6.92618e-07
-4.93444e-08
-2.81061e-08
6.68155e-07
-2.73549e-08
6.36029e-07
-5.48845e-08
4.9278e-08
-3.89973e-08
6.14751e-07
-5.47993e-08
4.0219e-08
-3.974e-08
6.49033e-07
2.84361e-08
-4.0219e-08
6.75077e-07
1.47036e-08
-4.03217e-08
6.92618e-07
6.01966e-15
-4.03649e-08
7.01441e-07
-1.47036e-08
-4.03649e-08
7.01441e-07
-2.84361e-08
-4.03218e-08
6.92618e-07
-4.0219e-08
-4.0219e-08
6.75077e-07
-4.9278e-08
-3.97399e-08
6.49033e-07
-3.89973e-08
6.14751e-07
-5.47993e-08
4.8743e-08
-4.89064e-08
5.82981e-07
-5.36514e-08
3.974e-08
-4.8743e-08
6.2059e-07
2.81061e-08
-4.9278e-08
6.49033e-07
1.45275e-08
-4.93444e-08
6.68155e-07
6.66425e-15
-4.94253e-08
6.77777e-07
-1.45274e-08
-4.94253e-08
6.77777e-07
-2.81061e-08
-4.93444e-08
6.68155e-07
-3.97399e-08
-4.9278e-08
6.49033e-07
-4.87429e-08
-4.87429e-08
6.2059e-07
-4.89064e-08
5.82981e-07
-5.36514e-08
4.89064e-08
5.40811e-07
-5.49028e-08
-5.49028e-08
3.89973e-08
5.82981e-07
-5.36514e-08
2.73549e-08
6.14751e-07
-5.47993e-08
1.40403e-08
6.36029e-07
-5.48845e-08
-1.56607e-15
6.46729e-07
-5.51227e-08
-1.40403e-08
6.46729e-07
-5.51228e-08
-2.73549e-08
6.36029e-07
-5.48845e-08
-3.89973e-08
6.14751e-07
-5.47993e-08
-4.89065e-08
5.82981e-07
-5.36514e-08
5.40811e-07
-5.49028e-08
-5.49028e-08
2.35905e-08
2.35905e-08
5.433e-07
-2.48351e-08
-2.48351e-08
1.94769e-08
2.42165e-08
5.87966e-07
-2.50888e-08
1.39005e-08
2.47907e-08
6.21561e-07
-2.60251e-08
7.19696e-09
2.5025e-08
6.44069e-07
-2.63619e-08
-1.10216e-15
2.51413e-08
6.55376e-07
-2.65909e-08
-7.19696e-09
2.51413e-08
6.55376e-07
-2.65909e-08
-1.39004e-08
2.5025e-08
6.44069e-07
-2.63619e-08
-1.94769e-08
2.47907e-08
6.21561e-07
-2.60251e-08
-2.35905e-08
2.42165e-08
5.87966e-07
-2.50888e-08
2.35905e-08
5.433e-07
-2.48351e-08
-2.48351e-08
2.42165e-08
1.9477e-08
5.87966e-07
-2.50888e-08
2.03714e-08
2.03714e-08
6.2828e-07
1.46285e-08
2.08563e-08
6.5871e-07
7.62012e-09
2.10501e-08
6.79138e-07
2.31856e-16
2.11358e-08
6.89403e-07
-7.62012e-09
2.11357e-08
6.89403e-07
-1.46285e-08
2.10501e-08
6.79138e-07
-2.03714e-08
2.08563e-08
6.5871e-07
-2.42165e-08
2.03714e-08
6.2828e-07
1.94769e-08
5.87966e-07
-2.50888e-08
2.47907e-08
1.39005e-08
6.21561e-07
-2.60251e-08
2.08563e-08
1.46285e-08
6.5871e-07
1.49859e-08
1.49859e-08
6.86818e-07
7.81561e-09
1.51356e-08
7.05702e-07
1.5752e-15
1.52004e-08
7.15192e-07
-7.8156e-09
1.52004e-08
7.15192e-07
-1.49859e-08
1.51356e-08
7.05702e-07
-2.08563e-08
1.49859e-08
6.86818e-07
-2.47907e-08
1.46285e-08
6.5871e-07
1.39004e-08
6.21561e-07
-2.60251e-08
2.5025e-08
7.19697e-09
6.44069e-07
-2.63619e-08
2.10501e-08
7.62011e-09
6.79138e-07
1.51356e-08
7.81561e-09
7.05702e-07
7.90281e-09
7.90282e-09
7.23556e-07
2.84089e-15
7.94113e-09
7.32527e-07
-7.90281e-09
7.94113e-09
7.32527e-07
-1.51356e-08
7.90281e-09
7.23556e-07
-2.10501e-08
7.81561e-09
7.05702e-07
-2.5025e-08
7.62012e-09
6.79138e-07
7.19696e-09
6.44069e-07
-2.63619e-08
2.51413e-08
5.86204e-16
6.55376e-07
-2.65909e-08
2.11357e-08
-3.82049e-16
6.89403e-07
1.52004e-08
2.47472e-15
7.15192e-07
7.94113e-09
4.5028e-15
7.32527e-07
2.98179e-15
3.91224e-15
7.41238e-07
-7.94113e-09
2.35359e-15
7.41238e-07
-1.52004e-08
1.35628e-15
7.32527e-07
-2.11357e-08
4.7462e-15
7.15192e-07
-2.51413e-08
5.24747e-15
6.89403e-07
1.11785e-15
6.55376e-07
-2.65909e-08
2.51413e-08
-7.19696e-09
6.55376e-07
-2.65909e-08
2.11357e-08
-7.62012e-09
6.89403e-07
1.52004e-08
-7.8156e-09
7.15192e-07
7.94113e-09
-7.90281e-09
7.32527e-07
7.89804e-16
-7.94113e-09
7.41238e-07
-7.94113e-09
-7.94113e-09
7.41238e-07
-1.52004e-08
-7.90281e-09
7.32527e-07
-2.11357e-08
-7.8156e-09
7.15192e-07
-2.51413e-08
-7.62011e-09
6.89403e-07
-7.19696e-09
6.55376e-07
-2.65909e-08
2.5025e-08
-1.39004e-08
6.44069e-07
-2.63619e-08
2.10501e-08
-1.46285e-08
6.79138e-07
1.51356e-08
-1.49859e-08
7.05702e-07
7.90281e-09
-1.51356e-08
7.23556e-07
6.78322e-16
-1.52004e-08
7.32527e-07
-7.90281e-09
-1.52004e-08
7.32527e-07
-1.51356e-08
-1.51356e-08
7.23556e-07
-2.10501e-08
-1.49859e-08
7.05702e-07
-2.5025e-08
-1.46285e-08
6.79138e-07
-1.39005e-08
6.44069e-07
-2.63619e-08
2.47907e-08
-1.94769e-08
6.21561e-07
-2.60251e-08
2.08563e-08
-2.03714e-08
6.5871e-07
1.49859e-08
-2.08563e-08
6.86818e-07
7.81561e-09
-2.10501e-08
7.05702e-07
3.6995e-15
-2.11357e-08
7.15192e-07
-7.8156e-09
-2.11357e-08
7.15192e-07
-1.49858e-08
-2.10501e-08
7.05702e-07
-2.08563e-08
-2.08563e-08
6.86818e-07
-2.47907e-08
-2.03714e-08
6.5871e-07
-1.9477e-08
6.21561e-07
-2.60251e-08
2.42165e-08
-2.35905e-08
5.87966e-07
-2.50888e-08
2.03714e-08
-2.42165e-08
6.2828e-07
1.46285e-08
-2.47907e-08
6.5871e-07
7.62012e-09
-2.5025e-08
6.79138e-07
3.37475e-15
-2.51413e-08
6.89403e-07
-7.62011e-09
-2.51413e-08
6.89403e-07
-1.46285e-08
-2.5025e-08
6.79138e-07
-2.03714e-08
-2.47907e-08
6.5871e-07
-2.42165e-08
-2.42165e-08
6.2828e-07
-2.35905e-08
5.87966e-07
-2.50888e-08
2.35905e-08
5.433e-07
-2.48351e-08
-2.48351e-08
1.9477e-08
5.87966e-07
-2.50888e-08
1.39004e-08
6.21561e-07
-2.60251e-08
7.19696e-09
6.44069e-07
-2.63619e-08
1.88974e-16
6.55376e-07
-2.65909e-08
-7.19697e-09
6.55376e-07
-2.65909e-08
-1.39005e-08
6.44069e-07
-2.63619e-08
-1.9477e-08
6.21561e-07
-2.60251e-08
-2.35905e-08
5.87966e-07
-2.50888e-08
5.433e-07
-2.48351e-08
-2.48351e-08
8.37125e-09
8.37125e-09
5.43113e-07
-8.27783e-09
-8.27783e-09
7.27548e-09
9.23098e-09
5.88775e-07
-8.94376e-09
5.37223e-09
9.9092e-09
6.23233e-07
-9.67709e-09
2.83845e-09
1.0294e-08
6.46375e-07
-1.00666e-08
8.98587e-16
1.04835e-08
6.58012e-07
-1.02812e-08
-2.83844e-09
1.04835e-08
6.58012e-07
-1.02812e-08
-5.37222e-09
1.0294e-08
6.46375e-07
-1.00666e-08
-7.27547e-09
9.90919e-09
6.23233e-07
-9.67709e-09
-8.37125e-09
9.231e-09
5.88775e-07
-8.94377e-09
8.37126e-09
5.43113e-07
-8.27783e-09
-8.27784e-09
9.23099e-09
7.27547e-09
5.88775e-07
-8.94377e-09
8.16565e-09
8.16565e-09
6.30411e-07
6.06802e-09
8.76813e-09
6.61949e-07
3.22401e-09
9.11058e-09
6.83166e-07
-4.65717e-18
9.27377e-09
6.93837e-07
-3.22401e-09
9.27377e-09
6.93837e-07
-6.06802e-09
9.11058e-09
6.83166e-07
-8.16565e-09
8.76812e-09
6.61949e-07
-9.23099e-09
8.16565e-09
6.30411e-07
7.27548e-09
5.88775e-07
-8.94376e-09
9.9092e-09
5.37222e-09
6.23233e-07
-9.67709e-09
8.76812e-09
6.06802e-09
6.61949e-07
6.51363e-09
6.51363e-09
6.91327e-07
3.4613e-09
6.76691e-09
7.11098e-07
1.83687e-15
6.88533e-09
7.21041e-07
-3.46129e-09
6.88533e-09
7.21041e-07
-6.51363e-09
6.7669e-09
7.11098e-07
-8.76813e-09
6.51363e-09
6.91327e-07
-9.90921e-09
6.06803e-09
6.61949e-07
5.37222e-09
6.23233e-07
-9.67709e-09
1.0294e-08
2.83844e-09
6.46375e-07
-1.00666e-08
9.11058e-09
3.22401e-09
6.83166e-07
6.76691e-09
3.4613e-09
7.11098e-07
3.59637e-09
3.59637e-09
7.29897e-07
2.92213e-15
3.65898e-09
7.3935e-07
-3.59637e-09
3.65898e-09
7.3935e-07
-6.7669e-09
3.59637e-09
7.29897e-07
-9.11058e-09
3.4613e-09
7.11098e-07
-1.0294e-08
3.22401e-09
6.83166e-07
2.83844e-09
6.46375e-07
-1.00666e-08
1.04835e-08
7.58328e-17
6.58012e-07
-1.02812e-08
9.27377e-09
-7.24611e-16
6.93837e-07
6.88533e-09
1.52338e-15
7.21041e-07
3.65898e-09
2.98861e-15
7.3935e-07
3.14944e-15
3.46319e-15
7.48556e-07
-3.65898e-09
2.31416e-15
7.48556e-07
-6.88533e-09
1.40587e-15
7.3935e-07
-9.27377e-09
3.48464e-15
7.21041e-07
-1.04835e-08
3.06158e-15
6.93837e-07
9.82082e-16
6.58012e-07
-1.02812e-08
1.04835e-08
-2.83844e-09
6.58012e-07
-1.02812e-08
9.27377e-09
-3.22401e-09
6.93837e-07
6.88533e-09
-3.46129e-09
7.21041e-07
3.65898e-09
-3.59637e-09
7.3935e-07
1.95696e-15
-3.65898e-09
7.48556e-07
-3.65898e-09
-3.65898e-09
7.48556e-07
-6.88533e-09
-3.59637e-09
7.3935e-07
-9.27377e-09
-3.46129e-09
7.21041e-07
-1.04835e-08
-3.224e-09
6.93837e-07
-2.83844e-09
6.58012e-07
-1.02812e-08
1.0294e-08
-5.37222e-09
6.46375e-07
-1.00666e-08
9.11058e-09
-6.06803e-09
6.83166e-07
6.7669e-09
-6.51363e-09
7.11098e-07
3.59637e-09
-6.7669e-09
7.29897e-07
1.60785e-15
-6.88533e-09
7.3935e-07
-3.59637e-09
-6.88533e-09
7.3935e-07
-6.7669e-09
-6.7669e-09
7.29897e-07
-9.11058e-09
-6.51362e-09
7.11098e-07
-1.0294e-08
-6.06802e-09
6.83166e-07
-5.37222e-09
6.46375e-07
-1.00666e-08
9.90921e-09
-7.27548e-09
6.23233e-07
-9.67709e-09
8.76813e-09
-8.16565e-09
6.61949e-07
6.51363e-09
-8.76813e-09
6.91327e-07
3.4613e-09
-9.11058e-09
7.11098e-07
3.2574e-15
-9.27377e-09
7.21041e-07
-3.46129e-09
-9.27377e-09
7.21041e-07
-6.51362e-09
-9.11058e-09
7.11098e-07
-8.76812e-09
-8.76812e-09
6.91327e-07
-9.9092e-09
-8.16565e-09
6.61949e-07
-7.27548e-09
6.23233e-07
-9.67708e-09
9.231e-09
-8.37126e-09
5.88775e-07
-8.94376e-09
8.16565e-09
-9.23099e-09
6.30411e-07
6.06803e-09
-9.90921e-09
6.61949e-07
3.22401e-09
-1.0294e-08
6.83166e-07
2.94661e-15
-1.04835e-08
6.93837e-07
-3.224e-09
-1.04835e-08
6.93837e-07
-6.06802e-09
-1.0294e-08
6.83166e-07
-8.16565e-09
-9.90919e-09
6.61949e-07
-9.23099e-09
-9.23099e-09
6.30411e-07
-8.37127e-09
5.88775e-07
-8.94376e-09
8.37125e-09
5.43113e-07
-8.27783e-09
-8.27783e-09
7.27548e-09
5.88775e-07
-8.94376e-09
5.37222e-09
6.23233e-07
-9.67709e-09
2.83844e-09
6.46375e-07
-1.00666e-08
4.68166e-16
6.58012e-07
-1.02812e-08
-2.83844e-09
6.58012e-07
-1.02812e-08
-5.37222e-09
6.46375e-07
-1.00666e-08
-7.27547e-09
6.23233e-07
-9.67708e-09
-8.37125e-09
5.88775e-07
-8.94376e-09
5.43113e-07
-8.27784e-09
-8.27784e-09
2.81168e-09
2.81169e-09
5.42877e-07
-2.69355e-09
-2.69355e-09
2.50696e-09
3.227e-09
5.88854e-07
-3.00093e-09
1.88365e-09
3.5666e-09
6.23608e-07
-3.3183e-09
1.00586e-09
3.77944e-09
6.46981e-07
-3.50723e-09
-2.26059e-15
3.88744e-09
6.58741e-07
-3.6103e-09
-1.00586e-09
3.88744e-09
6.58741e-07
-3.6103e-09
-1.88365e-09
3.77943e-09
6.46981e-07
-3.50723e-09
-2.50696e-09
3.56658e-09
6.23608e-07
-3.31829e-09
-2.81168e-09
3.22699e-09
5.88854e-07
-3.00093e-09
2.81167e-09
5.42877e-07
-2.69354e-09
-2.69354e-09
3.22701e-09
2.50696e-09
5.88854e-07
-3.00094e-09
2.94605e-09
2.94604e-09
6.30973e-07
2.23796e-09
3.27192e-09
6.62951e-07
1.20478e-09
3.47709e-09
6.84501e-07
1.05404e-15
3.57933e-09
6.9535e-07
-1.20478e-09
3.57932e-09
6.9535e-07
-2.23795e-09
3.47709e-09
6.84501e-07
-2.94605e-09
3.27191e-09
6.62951e-07
-3.227e-09
2.94604e-09
6.30973e-07
2.50695e-09
5.88854e-07
-3.00093e-09
3.5666e-09
1.88365e-09
6.23608e-07
-3.3183e-09
3.27192e-09
2.23796e-09
6.62951e-07
2.4917e-09
2.49169e-09
6.92887e-07
1.34347e-09
2.65171e-09
7.13072e-07
3.12223e-15
2.73049e-09
7.23234e-07
-1.34347e-09
2.73049e-09
7.23234e-07
-2.49169e-09
2.65171e-09
7.13072e-07
-3.27192e-09
2.49169e-09
6.92887e-07
-3.56659e-09
2.23795e-09
6.62951e-07
1.88364e-09
6.23608e-07
-3.3183e-09
3.77944e-09
1.00586e-09
6.46981e-07
-3.50723e-09
3.47709e-09
1.20478e-09
6.84501e-07
2.65171e-09
1.34347e-09
7.13072e-07
1.43108e-09
1.43108e-09
7.32338e-07
3.78268e-15
1.47396e-09
7.42038e-07
-1.43107e-09
1.47395e-09
7.42038e-07
-2.6517e-09
1.43108e-09
7.32338e-07
-3.47709e-09
1.34347e-09
7.13072e-07
-3.77943e-09
1.20478e-09
6.84501e-07
1.00586e-09
6.46981e-07
-3.50723e-09
3.88744e-09
-1.61427e-15
6.58741e-07
-3.6103e-09
3.57932e-09
3.35428e-15
6.9535e-07
2.73049e-09
4.82995e-15
7.23234e-07
1.47395e-09
4.94434e-15
7.42038e-07
3.06949e-15
4.31607e-15
7.51504e-07
-1.47395e-09
2.34267e-15
7.51504e-07
-2.73048e-09
7.92612e-16
7.42038e-07
-3.57932e-09
1.23102e-15
7.23234e-07
-3.88744e-09
-2.90189e-17
6.9535e-07
3.59782e-16
6.58741e-07
-3.6103e-09
3.88744e-09
-1.00586e-09
6.58741e-07
-3.6103e-09
3.57932e-09
-1.20478e-09
6.9535e-07
2.73049e-09
-1.34346e-09
7.23234e-07
1.47395e-09
-1.43107e-09
7.42038e-07
1.07589e-15
-1.47395e-09
7.51504e-07
-1.47395e-09
-1.47395e-09
7.51504e-07
-2.73048e-09
-1.43108e-09
7.42038e-07
-3.57932e-09
-1.34347e-09
7.23234e-07
-3.88744e-09
-1.20478e-09
6.9535e-07
-1.00586e-09
6.58741e-07
-3.6103e-09
3.77943e-09
-1.88365e-09
6.46981e-07
-3.50723e-09
3.47709e-09
-2.23794e-09
6.84501e-07
2.6517e-09
-2.49168e-09
7.13072e-07
1.43108e-09
-2.6517e-09
7.32338e-07
-2.68747e-16
-2.73048e-09
7.42038e-07
-1.43108e-09
-2.73049e-09
7.42038e-07
-2.6517e-09
-2.65171e-09
7.32338e-07
-3.47709e-09
-2.49169e-09
7.13072e-07
-3.77943e-09
-2.23795e-09
6.84501e-07
-1.88364e-09
6.46981e-07
-3.50723e-09
3.56658e-09
-2.50695e-09
6.23608e-07
-3.31829e-09
3.27191e-09
-2.94604e-09
6.62951e-07
2.49169e-09
-3.27191e-09
6.92887e-07
1.34347e-09
-3.47709e-09
7.13072e-07
3.09082e-16
-3.57932e-09
7.23234e-07
-1.34347e-09
-3.57932e-09
7.23234e-07
-2.49169e-09
-3.47709e-09
7.13072e-07
-3.27192e-09
-3.27192e-09
6.92887e-07
-3.56659e-09
-2.94604e-09
6.62951e-07
-2.50695e-09
6.23608e-07
-3.31829e-09
3.227e-09
-2.81168e-09
5.88854e-07
-3.00093e-09
2.94604e-09
-3.22698e-09
6.30973e-07
2.23795e-09
-3.56658e-09
6.62951e-07
1.20478e-09
-3.77943e-09
6.84501e-07
-2.92284e-16
-3.88744e-09
6.9535e-07
-1.20478e-09
-3.88744e-09
6.9535e-07
-2.23795e-09
-3.77944e-09
6.84501e-07
-2.94604e-09
-3.56659e-09
6.62951e-07
-3.227e-09
-3.227e-09
6.30973e-07
-2.81168e-09
5.88854e-07
-3.00093e-09
2.81168e-09
5.42877e-07
-2.69354e-09
-2.69354e-09
2.50696e-09
5.88854e-07
-3.00092e-09
1.88364e-09
6.23608e-07
-3.31829e-09
1.00586e-09
6.46981e-07
-3.50723e-09
2.18079e-15
6.58741e-07
-3.6103e-09
-1.00585e-09
6.58741e-07
-3.61031e-09
-1.88364e-09
6.46981e-07
-3.50723e-09
-2.50695e-09
6.23608e-07
-3.31829e-09
-2.81168e-09
5.88854e-07
-3.00092e-09
5.42877e-07
-2.69354e-09
-2.69354e-09
9.91503e-10
9.91511e-10
5.42757e-07
-9.31929e-10
-9.31928e-10
8.95342e-10
1.15621e-09
5.88843e-07
-1.04992e-09
6.78346e-10
1.29283e-09
6.23703e-07
-1.17102e-09
3.64072e-10
1.3819e-09
6.47159e-07
-1.24589e-09
-2.4103e-15
1.4275e-09
6.58964e-07
-1.28642e-09
-3.64077e-10
1.4275e-09
6.58964e-07
-1.28642e-09
-6.78349e-10
1.3819e-09
6.47159e-07
-1.24589e-09
-8.95347e-10
1.29283e-09
6.23703e-07
-1.17101e-09
-9.91514e-10
1.15621e-09
5.88843e-07
-1.04992e-09
9.91506e-10
5.42757e-07
-9.31931e-10
-9.31929e-10
1.15621e-09
8.95342e-10
5.88843e-07
-1.04992e-09
1.07311e-09
1.07311e-09
6.31139e-07
8.24286e-10
1.20961e-09
6.63283e-07
4.46758e-10
1.29916e-09
6.84962e-07
-1.25019e-15
1.34463e-09
6.95879e-07
-4.46761e-10
1.34462e-09
6.95879e-07
-8.24293e-10
1.29916e-09
6.84962e-07
-1.07312e-09
1.20961e-09
6.63283e-07
-1.15622e-09
1.07311e-09
6.31139e-07
8.95335e-10
5.88843e-07
-1.04992e-09
1.29283e-09
6.78342e-10
6.23703e-07
-1.17101e-09
1.20961e-09
8.24288e-10
6.63283e-07
9.33821e-10
9.33823e-10
6.93439e-07
5.07624e-10
1.00599e-09
7.13791e-07
2.43791e-15
1.04236e-09
7.24044e-07
-5.0762e-10
1.04236e-09
7.24044e-07
-9.33818e-10
1.00599e-09
7.13791e-07
-1.20961e-09
9.3382e-10
6.93439e-07
-1.29284e-09
8.24289e-10
6.63283e-07
6.78339e-10
6.23703e-07
-1.17102e-09
1.3819e-09
3.6407e-10
6.47159e-07
-1.24589e-09
1.29916e-09
4.46759e-10
6.84962e-07
1.00599e-09
5.07626e-10
7.13791e-07
5.47892e-10
5.47894e-10
7.33255e-07
3.63103e-15
5.68117e-10
7.4306e-07
-5.47885e-10
5.68116e-10
7.4306e-07
-1.00598e-09
5.47891e-10
7.33255e-07
-1.29916e-09
5.07623e-10
7.13791e-07
-1.38189e-09
4.46758e-10
6.84962e-07
3.64071e-10
6.47159e-07
-1.24589e-09
1.4275e-09
-3.18335e-15
6.58964e-07
-1.28642e-09
1.34462e-09
1.18813e-15
6.95879e-07
1.04236e-09
3.29972e-15
7.24044e-07
5.68117e-10
4.26586e-15
7.4306e-07
3.33807e-15
3.992e-15
7.5264e-07
-5.6811e-10
3.23065e-15
7.5264e-07
-1.04235e-09
2.56337e-15
7.4306e-07
-1.34462e-09
2.65649e-15
7.24044e-07
-1.4275e-09
1.049e-15
6.95879e-07
-6.25776e-16
6.58964e-07
-1.28642e-09
1.4275e-09
-3.64078e-10
6.58964e-07
-1.28642e-09
1.34462e-09
-4.46756e-10
6.95879e-07
1.04236e-09
-5.0762e-10
7.24044e-07
5.68115e-10
-5.47886e-10
7.4306e-07
2.80998e-15
-5.6811e-10
7.5264e-07
-5.6811e-10
-5.6811e-10
7.5264e-07
-1.04235e-09
-5.47886e-10
7.4306e-07
-1.34462e-09
-5.07618e-10
7.24044e-07
-1.4275e-09
-4.46757e-10
6.95879e-07
-3.64071e-10
6.58964e-07
-1.28642e-09
1.38189e-09
-6.78348e-10
6.47159e-07
-1.24588e-09
1.29915e-09
-8.24287e-10
6.84962e-07
1.00598e-09
-9.33819e-10
7.13791e-07
5.47889e-10
-1.00598e-09
7.33255e-07
1.68756e-15
-1.04236e-09
7.4306e-07
-5.47886e-10
-1.04236e-09
7.4306e-07
-1.00598e-09
-1.00598e-09
7.33255e-07
-1.29916e-09
-9.33815e-10
7.13791e-07
-1.38189e-09
-8.24288e-10
6.84962e-07
-6.7834e-10
6.47159e-07
-1.24589e-09
1.29282e-09
-8.95338e-10
6.23703e-07
-1.17101e-09
1.20961e-09
-1.07312e-09
6.63283e-07
9.33818e-10
-1.20961e-09
6.93439e-07
5.07622e-10
-1.29916e-09
7.13791e-07
1.44371e-15
-1.34462e-09
7.24044e-07
-5.07619e-10
-1.34462e-09
7.24044e-07
-9.33818e-10
-1.29915e-09
7.13791e-07
-1.20961e-09
-1.20961e-09
6.93439e-07
-1.29283e-09
-1.07312e-09
6.63283e-07
-8.95338e-10
6.23703e-07
-1.17101e-09
1.15622e-09
-9.91508e-10
5.88843e-07
-1.04992e-09
1.07312e-09
-1.15621e-09
6.31139e-07
8.2429e-10
-1.29283e-09
6.63283e-07
4.4676e-10
-1.3819e-09
6.84962e-07
1.23525e-15
-1.4275e-09
6.95879e-07
-4.46757e-10
-1.4275e-09
6.95879e-07
-8.24287e-10
-1.38189e-09
6.84962e-07
-1.07312e-09
-1.29282e-09
6.63283e-07
-1.15622e-09
-1.15621e-09
6.31139e-07
-9.91514e-10
5.88843e-07
-1.04992e-09
9.91502e-10
5.42757e-07
-9.31923e-10
-9.31928e-10
8.95336e-10
5.88843e-07
-1.04992e-09
6.78342e-10
6.23703e-07
-1.17102e-09
3.64071e-10
6.47159e-07
-1.24589e-09
2.02697e-16
6.58964e-07
-1.28642e-09
-3.64071e-10
6.58964e-07
-1.28642e-09
-6.78339e-10
6.47159e-07
-1.24589e-09
-8.9533e-10
6.23703e-07
-1.17101e-09
-9.915e-10
5.88843e-07
-1.04992e-09
5.42757e-07
-9.31927e-10
-9.31928e-10
3.50691e-10
3.50701e-10
5.42707e-07
-3.25335e-10
-3.25332e-10
3.20336e-10
4.1529e-10
5.88829e-07
-3.70908e-10
2.44622e-10
4.69342e-10
6.23726e-07
-4.17068e-10
1.31945e-10
5.05304e-10
6.47213e-07
-4.46321e-10
-3.91343e-15
5.23784e-10
6.59034e-07
-4.62031e-10
-1.31954e-10
5.23784e-10
6.59034e-07
-4.62029e-10
-2.44635e-10
5.05302e-10
6.47213e-07
-4.46316e-10
-3.20342e-10
4.69323e-10
6.23726e-07
-4.1706e-10
-3.50684e-10
4.15267e-10
5.88829e-07
-3.70902e-10
3.50688e-10
5.42707e-07
-3.25322e-10
-3.25327e-10
4.15288e-10
3.20348e-10
5.88829e-07
-3.70908e-10
3.90538e-10
3.90536e-10
6.31188e-07
3.02723e-10
4.45598e-10
6.63395e-07
1.64978e-10
4.82506e-10
6.85122e-07
1.59321e-15
5.01402e-10
6.96067e-07
-1.64974e-10
5.01401e-10
6.96067e-07
-3.02716e-10
4.82502e-10
6.85122e-07
-3.90533e-10
4.45586e-10
6.63395e-07
-4.15289e-10
3.90524e-10
6.31188e-07
3.20329e-10
5.88829e-07
-3.70906e-10
4.69355e-10
2.44621e-10
6.23726e-07
-4.17067e-10
4.45604e-10
3.02725e-10
6.63395e-07
3.47515e-10
3.47511e-10
6.93635e-07
1.90053e-10
3.777e-10
7.14054e-07
4.51054e-15
3.93082e-10
7.24342e-07
-1.90043e-10
3.93081e-10
7.24342e-07
-3.47502e-10
3.77695e-10
7.14054e-07
-4.45591e-10
3.47502e-10
6.93635e-07
-4.69333e-10
3.02712e-10
6.63395e-07
2.44619e-10
6.23726e-07
-4.17067e-10
5.05309e-10
1.3194e-10
6.47213e-07
-4.46322e-10
4.82511e-10
1.6498e-10
6.85122e-07
3.77702e-10
1.90052e-10
7.14054e-07
2.07038e-10
2.07039e-10
7.33596e-07
4.59138e-15
2.15676e-10
7.43444e-07
-2.07029e-10
2.15674e-10
7.43444e-07
-3.77692e-10
2.07034e-10
7.33596e-07
-4.82501e-10
1.90045e-10
7.14054e-07
-5.05301e-10
1.64972e-10
6.85122e-07
1.31943e-10
6.47213e-07
-4.46321e-10
5.23783e-10
-5.41856e-15
6.59034e-07
-4.62033e-10
5.01402e-10
3.32216e-15
6.96067e-07
3.93081e-10
5.05054e-15
7.24342e-07
2.15675e-10
5.3441e-15
7.43444e-07
3.74194e-15
4.53868e-15
7.53072e-07
-2.15667e-10
3.05099e-15
7.53072e-07
-3.93075e-10
1.09622e-15
7.43444e-07
-5.01397e-10
8.55646e-17
7.24342e-07
-5.2378e-10
-2.23984e-15
6.96067e-07
9.07392e-16
6.59034e-07
-4.62033e-10
5.23782e-10
-1.31954e-10
6.59034e-07
-4.62029e-10
5.014e-10
-1.64972e-10
6.96067e-07
3.93079e-10
-1.90041e-10
7.24342e-07
2.15672e-10
-2.07028e-10
7.43444e-07
2.13297e-15
-2.15667e-10
7.53072e-07
-2.15669e-10
-2.15668e-10
7.53072e-07
-3.93076e-10
-2.07032e-10
7.43444e-07
-5.01398e-10
-1.90046e-10
7.24342e-07
-5.23781e-10
-1.64977e-10
6.96067e-07
-1.3194e-10
6.59034e-07
-4.62034e-10
5.05302e-10
-2.44634e-10
6.47213e-07
-4.46317e-10
4.82504e-10
-3.02715e-10
6.85122e-07
3.77695e-10
-3.475e-10
7.14054e-07
2.07034e-10
-3.7769e-10
7.33596e-07
6.5356e-16
-3.93074e-10
7.43444e-07
-2.07032e-10
-3.93075e-10
7.43444e-07
-3.77695e-10
-3.77694e-10
7.33596e-07
-4.82502e-10
-3.47506e-10
7.14054e-07
-5.05301e-10
-3.0272e-10
6.85122e-07
-2.44616e-10
6.47213e-07
-4.46319e-10
4.69332e-10
-3.20345e-10
6.23726e-07
-4.17062e-10
4.45592e-10
-3.90532e-10
6.63395e-07
3.47506e-10
-4.45588e-10
6.93635e-07
1.90047e-10
-4.82499e-10
7.14054e-07
9.90778e-16
-5.01395e-10
7.24342e-07
-1.90045e-10
-5.01396e-10
7.24342e-07
-3.47504e-10
-4.82502e-10
7.14054e-07
-4.45591e-10
-4.45594e-10
6.93635e-07
-4.69336e-10
-3.90533e-10
6.63395e-07
-3.20331e-10
6.23726e-07
-4.17062e-10
4.15277e-10
-3.50691e-10
5.88829e-07
-3.70906e-10
3.90526e-10
-4.1528e-10
6.31188e-07
3.02711e-10
-4.69328e-10
6.63395e-07
1.64971e-10
-5.05301e-10
6.85122e-07
-1.20959e-15
-5.2378e-10
6.96067e-07
-1.64975e-10
-5.2378e-10
6.96067e-07
-3.02717e-10
-5.05302e-10
6.85122e-07
-3.90529e-10
-4.69343e-10
6.63395e-07
-4.1528e-10
-4.15285e-10
6.31188e-07
-3.50685e-10
5.88829e-07
-3.70901e-10
3.50683e-10
5.42707e-07
-3.25325e-10
-3.25326e-10
3.20327e-10
5.88829e-07
-3.70901e-10
2.44617e-10
6.23726e-07
-4.17063e-10
1.31941e-10
6.47213e-07
-4.46321e-10
1.54074e-15
6.59034e-07
-4.62035e-10
-1.31939e-10
6.59034e-07
-4.62035e-10
-2.44615e-10
6.47213e-07
-4.46322e-10
-3.20331e-10
6.23726e-07
-4.17067e-10
-3.50689e-10
5.88829e-07
-3.709e-10
5.42707e-07
-3.25327e-10
-3.25323e-10
1.24298e-10
1.24294e-10
5.42687e-07
-1.14556e-10
-1.14557e-10
1.14304e-10
1.48684e-10
5.88822e-07
-1.31521e-10
8.76944e-11
1.69318e-10
6.23732e-07
-1.48618e-10
4.74483e-11
1.8328e-10
6.4723e-07
-1.59672e-10
-2.25657e-15
1.90488e-10
6.59056e-07
-1.65591e-10
-4.74535e-11
1.90487e-10
6.59056e-07
-1.65589e-10
-8.77011e-11
1.83279e-10
6.4723e-07
-1.59669e-10
-1.14314e-10
1.69324e-10
6.23732e-07
-1.48618e-10
-1.24302e-10
1.48681e-10
5.88822e-07
-1.31521e-10
1.243e-10
5.42687e-07
-1.1456e-10
-1.1456e-10
1.48679e-10
1.14303e-10
5.88822e-07
-1.31518e-10
1.41032e-10
1.41033e-10
6.31204e-07
1.10009e-10
1.62416e-10
6.63433e-07
6.01888e-11
1.77005e-10
6.85178e-07
-1.16015e-15
1.84531e-10
6.96133e-07
-6.01912e-11
1.8453e-10
6.96133e-07
-1.10014e-10
1.77004e-10
6.85178e-07
-1.41036e-10
1.62417e-10
6.63433e-07
-1.48691e-10
1.41034e-10
6.31204e-07
1.143e-10
5.88822e-07
-1.31521e-10
1.69314e-10
8.7692e-11
6.23732e-07
-1.48615e-10
1.62413e-10
1.10011e-10
6.63433e-07
1.27608e-10
1.27611e-10
6.93705e-07
7.01052e-11
1.39694e-10
7.14148e-07
5.62648e-16
1.45908e-10
7.24451e-07
-7.01046e-11
1.45907e-10
7.24451e-07
-1.2761e-10
1.39694e-10
7.14148e-07
-1.62416e-10
1.27612e-10
6.93705e-07
-1.69322e-10
1.10012e-10
6.63433e-07
8.76891e-11
6.23732e-07
-1.48619e-10
1.83275e-10
4.74472e-11
6.4723e-07
-1.5967e-10
1.77002e-10
6.01895e-11
6.85178e-07
1.39693e-10
7.01068e-11
7.14148e-07
7.69534e-11
7.6954e-11
7.33721e-07
1.74065e-15
8.0471e-11
7.43587e-07
-7.69507e-11
8.04707e-11
7.43587e-07
-1.39691e-10
7.69542e-11
7.33721e-07
-1.77002e-10
7.01077e-11