/*--------------------------------*- C++ -*----------------------------------*\
| =========                 |                                                 |
| \\      /  F ield         | OpenFOAM: The Open Source CFD Toolbox           |
|  \\    /   O peration     | Version:  2412                                  |
|   \\  /    A nd           | Website:  www.openfoam.com                      |
|    \\/     M anipulation  |                                                 |
\*---------------------------------------------------------------------------*/
FoamFile
{
    version     2.0;
    format      ascii;
    arch        "LSB;label=32;scalar=64";
    class       volVectorField;
    location    "1.6";
    object      U;
}
// * * * * * * * * * * * * * * * * * * * * * * * * * * * * * * * * * * * * * //

dimensions      [0 1 -1 0 0 0 0];

internalField   nonuniform List<vector> 
15000
(
(0.000849878 0.000849878 0.0105977)
(0.000613756 0.000771496 0.0105345)
(0.000416253 0.00075532 0.0104859)
(0.000244517 0.00073533 0.0104533)
(8.0098e-05 0.000726883 0.0104373)
(-8.00981e-05 0.000726883 0.0104373)
(-0.000244517 0.00073533 0.0104533)
(-0.000416253 0.00075532 0.0104859)
(-0.000613756 0.000771496 0.0105345)
(-0.000849878 0.000849878 0.0105977)
(0.000771496 0.000613756 0.0105345)
(0.00057362 0.00057362 0.0104624)
(0.000395352 0.000551036 0.0104088)
(0.000231838 0.000535359 0.0103743)
(7.61935e-05 0.000528184 0.0103576)
(-7.61935e-05 0.000528184 0.0103576)
(-0.000231838 0.000535359 0.0103743)
(-0.000395352 0.000551036 0.0104088)
(-0.00057362 0.00057362 0.0104624)
(-0.000771496 0.000613756 0.0105345)
(0.00075532 0.000416253 0.0104859)
(0.000551036 0.000395352 0.0104088)
(0.000377894 0.000377894 0.0103543)
(0.000220497 0.000365237 0.0103199)
(7.23862e-05 0.000359026 0.0103034)
(-7.23862e-05 0.000359026 0.0103034)
(-0.000220497 0.000365237 0.0103199)
(-0.000377894 0.000377894 0.0103543)
(-0.000551036 0.000395352 0.0104088)
(-0.00075532 0.000416253 0.0104859)
(0.00073533 0.000244517 0.0104533)
(0.000535359 0.000231838 0.0103743)
(0.000365237 0.000220497 0.0103199)
(0.000212324 0.000212324 0.0102862)
(6.96204e-05 0.000208262 0.0102701)
(-6.96204e-05 0.000208262 0.0102701)
(-0.000212324 0.000212324 0.0102862)
(-0.000365237 0.000220497 0.0103199)
(-0.000535359 0.000231838 0.0103743)
(-0.00073533 0.000244517 0.0104533)
(0.000726883 8.0098e-05 0.0104373)
(0.000528184 7.61935e-05 0.0103576)
(0.000359026 7.23862e-05 0.0103034)
(0.000208262 6.96204e-05 0.0102701)
(6.82355e-05 6.82355e-05 0.0102542)
(-6.82355e-05 6.82355e-05 0.0102542)
(-0.000208262 6.96204e-05 0.0102701)
(-0.000359026 7.23862e-05 0.0103034)
(-0.000528184 7.61936e-05 0.0103576)
(-0.000726883 8.00981e-05 0.0104373)
(0.000726883 -8.00981e-05 0.0104373)
(0.000528184 -7.61935e-05 0.0103576)
(0.000359026 -7.23862e-05 0.0103034)
(0.000208262 -6.96204e-05 0.0102701)
(6.82355e-05 -6.82355e-05 0.0102542)
(-6.82355e-05 -6.82355e-05 0.0102542)
(-0.000208262 -6.96204e-05 0.0102701)
(-0.000359026 -7.23861e-05 0.0103034)
(-0.000528184 -7.61935e-05 0.0103576)
(-0.000726883 -8.00981e-05 0.0104373)
(0.00073533 -0.000244517 0.0104533)
(0.000535359 -0.000231838 0.0103743)
(0.000365237 -0.000220497 0.0103199)
(0.000212324 -0.000212324 0.0102862)
(6.96204e-05 -0.000208262 0.0102701)
(-6.96204e-05 -0.000208262 0.0102701)
(-0.000212324 -0.000212324 0.0102862)
(-0.000365237 -0.000220497 0.0103199)
(-0.000535359 -0.000231838 0.0103743)
(-0.000735331 -0.000244517 0.0104533)
(0.00075532 -0.000416253 0.0104859)
(0.000551036 -0.000395352 0.0104088)
(0.000377894 -0.000377894 0.0103543)
(0.000220497 -0.000365237 0.0103199)
(7.23862e-05 -0.000359026 0.0103034)
(-7.23861e-05 -0.000359026 0.0103034)
(-0.000220497 -0.000365237 0.0103199)
(-0.000377894 -0.000377894 0.0103543)
(-0.000551036 -0.000395352 0.0104088)
(-0.00075532 -0.000416253 0.0104859)
(0.000771496 -0.000613756 0.0105345)
(0.00057362 -0.00057362 0.0104624)
(0.000395352 -0.000551036 0.0104088)
(0.000231838 -0.000535359 0.0103743)
(7.61936e-05 -0.000528184 0.0103576)
(-7.61935e-05 -0.000528184 0.0103576)
(-0.000231838 -0.000535359 0.0103743)
(-0.000395352 -0.000551036 0.0104088)
(-0.00057362 -0.00057362 0.0104624)
(-0.000771496 -0.000613756 0.0105345)
(0.000849878 -0.000849878 0.0105977)
(0.000613756 -0.000771496 0.0105345)
(0.000416253 -0.00075532 0.0104859)
(0.000244517 -0.00073533 0.0104533)
(8.00981e-05 -0.000726883 0.0104373)
(-8.0098e-05 -0.000726883 0.0104373)
(-0.000244517 -0.000735331 0.0104533)
(-0.000416253 -0.00075532 0.0104859)
(-0.000613756 -0.000771496 0.0105345)
(-0.000849878 -0.000849878 0.0105977)
(0.00030437 0.00030437 0.0116318)
(0.000244328 0.000320643 0.0115163)
(0.00017835 0.000342664 0.0114279)
(0.000109663 0.000354123 0.0113683)
(3.66576e-05 0.000360801 0.011339)
(-3.66577e-05 0.000360801 0.011339)
(-0.000109663 0.000354123 0.0113683)
(-0.00017835 0.000342664 0.0114279)
(-0.000244328 0.000320643 0.0115163)
(-0.00030437 0.00030437 0.0116318)
(0.000320642 0.000244328 0.0115163)
(0.000263989 0.000263989 0.0113823)
(0.00019633 0.000280773 0.0112822)
(0.000121063 0.0002912 0.0112166)
(4.07879e-05 0.000296758 0.0111845)
(-4.07879e-05 0.000296758 0.0111845)
(-0.000121063 0.0002912 0.0112166)
(-0.00019633 0.000280773 0.0112822)
(-0.000263989 0.000263989 0.0113823)
(-0.000320643 0.000244328 0.0115163)
(0.000342664 0.00017835 0.0114279)
(0.000280773 0.00019633 0.0112822)
(0.000209108 0.000209108 0.0111767)
(0.000128757 0.000216848 0.0111089)
(4.34203e-05 0.000220701 0.0110758)
(-4.34203e-05 0.000220701 0.0110758)
(-0.000128757 0.000216848 0.0111089)
(-0.000209108 0.000209108 0.0111767)
(-0.000280773 0.00019633 0.0112822)
(-0.000342664 0.00017835 0.0114279)
(0.000354123 0.000109663 0.0113683)
(0.0002912 0.000121063 0.0112166)
(0.000216848 0.000128757 0.0111089)
(0.000133402 0.000133402 0.0110403)
(4.49866e-05 0.000135661 0.0110071)
(-4.49866e-05 0.000135661 0.0110071)
(-0.000133402 0.000133402 0.0110403)
(-0.000216848 0.000128757 0.0111089)
(-0.0002912 0.000121063 0.0112166)
(-0.000354123 0.000109663 0.0113683)
(0.000360801 3.66576e-05 0.011339)
(0.000296758 4.07878e-05 0.0111845)
(0.000220701 4.34203e-05 0.0110758)
(0.000135661 4.49866e-05 0.0110071)
(4.5735e-05 4.5735e-05 0.0109738)
(-4.5735e-05 4.5735e-05 0.0109738)
(-0.000135661 4.49866e-05 0.0110071)
(-0.000220701 4.34204e-05 0.0110758)
(-0.000296758 4.07879e-05 0.0111845)
(-0.000360801 3.66577e-05 0.011339)
(0.000360801 -3.66577e-05 0.011339)
(0.000296758 -4.07879e-05 0.0111845)
(0.000220701 -4.34203e-05 0.0110758)
(0.000135661 -4.49866e-05 0.0110071)
(4.5735e-05 -4.5735e-05 0.0109738)
(-4.5735e-05 -4.5735e-05 0.0109738)
(-0.000135661 -4.49866e-05 0.0110071)
(-0.000220701 -4.34203e-05 0.0110758)
(-0.000296758 -4.07878e-05 0.0111845)
(-0.000360801 -3.66577e-05 0.011339)
(0.000354123 -0.000109663 0.0113683)
(0.0002912 -0.000121063 0.0112166)
(0.000216848 -0.000128757 0.0111089)
(0.000133402 -0.000133402 0.0110403)
(4.49866e-05 -0.000135661 0.0110071)
(-4.49866e-05 -0.000135661 0.0110071)
(-0.000133402 -0.000133402 0.0110403)
(-0.000216848 -0.000128757 0.0111089)
(-0.0002912 -0.000121063 0.0112166)
(-0.000354123 -0.000109663 0.0113683)
(0.000342664 -0.00017835 0.0114279)
(0.000280773 -0.00019633 0.0112822)
(0.000209108 -0.000209108 0.0111767)
(0.000128757 -0.000216848 0.0111089)
(4.34204e-05 -0.000220701 0.0110758)
(-4.34203e-05 -0.000220701 0.0110758)
(-0.000128757 -0.000216848 0.0111089)
(-0.000209108 -0.000209108 0.0111767)
(-0.000280773 -0.00019633 0.0112822)
(-0.000342664 -0.00017835 0.0114279)
(0.000320643 -0.000244328 0.0115163)
(0.000263989 -0.000263989 0.0113823)
(0.00019633 -0.000280773 0.0112822)
(0.000121063 -0.0002912 0.0112166)
(4.07879e-05 -0.000296758 0.0111845)
(-4.07878e-05 -0.000296758 0.0111845)
(-0.000121063 -0.0002912 0.0112166)
(-0.00019633 -0.000280773 0.0112822)
(-0.000263989 -0.000263989 0.0113823)
(-0.000320642 -0.000244327 0.0115163)
(0.00030437 -0.00030437 0.0116318)
(0.000244328 -0.000320642 0.0115163)
(0.00017835 -0.000342664 0.0114279)
(0.000109663 -0.000354123 0.0113683)
(3.66577e-05 -0.000360801 0.011339)
(-3.66577e-05 -0.000360801 0.011339)
(-0.000109663 -0.000354123 0.0113683)
(-0.00017835 -0.000342664 0.0114279)
(-0.000244327 -0.000320642 0.0115163)
(-0.00030437 -0.00030437 0.0116318)
(0.000146925 0.000146925 0.0115354)
(0.000120857 0.00015774 0.01151)
(9.07992e-05 0.000170151 0.0114836)
(5.65167e-05 0.00017709 0.0114639)
(1.902e-05 0.000180918 0.0114539)
(-1.902e-05 0.000180918 0.0114539)
(-5.65167e-05 0.00017709 0.0114639)
(-9.07992e-05 0.000170151 0.0114836)
(-0.000120857 0.00015774 0.01151)
(-0.000146925 0.000146925 0.0115354)
(0.00015774 0.000120857 0.01151)
(0.000134258 0.000134258 0.0114665)
(0.000102081 0.000144526 0.0114298)
(6.36666e-05 0.000150982 0.0114043)
(2.1568e-05 0.000154362 0.0113915)
(-2.1568e-05 0.000154362 0.0113915)
(-6.36666e-05 0.000150982 0.0114043)
(-0.000102081 0.000144526 0.0114298)
(-0.000134258 0.000134258 0.0114665)
(-0.00015774 0.000120857 0.01151)
(0.000170151 9.07992e-05 0.0114836)
(0.000144526 0.000102081 0.0114298)
(0.000109952 0.000109952 0.011387)
(6.85448e-05 0.000114886 0.0113577)
(2.32501e-05 0.000117382 0.011343)
(-2.32501e-05 0.000117382 0.011343)
(-6.85448e-05 0.000114886 0.0113577)
(-0.000109952 0.000109952 0.011387)
(-0.000144526 0.000102081 0.0114298)
(-0.000170151 9.07992e-05 0.0114836)
(0.00017709 5.65167e-05 0.0114639)
(0.000150982 6.36666e-05 0.0114043)
(0.000114886 6.85448e-05 0.0113577)
(7.16281e-05 7.16281e-05 0.0113261)
(2.43158e-05 7.31894e-05 0.0113101)
(-2.43157e-05 7.31894e-05 0.0113101)
(-7.16281e-05 7.16281e-05 0.0113261)
(-0.000114886 6.85449e-05 0.0113577)
(-0.000150982 6.36666e-05 0.0114043)
(-0.00017709 5.65167e-05 0.0114639)
(0.000180918 1.902e-05 0.0114539)
(0.000154362 2.1568e-05 0.0113915)
(0.000117382 2.32501e-05 0.011343)
(7.31894e-05 2.43158e-05 0.0113101)
(2.48554e-05 2.48554e-05 0.0112936)
(-2.48553e-05 2.48554e-05 0.0112936)
(-7.31894e-05 2.43158e-05 0.0113101)
(-0.000117382 2.32501e-05 0.011343)
(-0.000154362 2.15681e-05 0.0113915)
(-0.000180918 1.902e-05 0.0114539)
(0.000180918 -1.902e-05 0.0114539)
(0.000154362 -2.1568e-05 0.0113915)
(0.000117382 -2.325e-05 0.011343)
(7.31894e-05 -2.43157e-05 0.0113101)
(2.48554e-05 -2.48553e-05 0.0112936)
(-2.48553e-05 -2.48553e-05 0.0112936)
(-7.31894e-05 -2.43157e-05 0.0113101)
(-0.000117382 -2.325e-05 0.011343)
(-0.000154362 -2.1568e-05 0.0113915)
(-0.000180918 -1.902e-05 0.0114539)
(0.00017709 -5.65167e-05 0.0114639)
(0.000150982 -6.36666e-05 0.0114043)
(0.000114886 -6.85448e-05 0.0113577)
(7.16281e-05 -7.16281e-05 0.0113261)
(2.43158e-05 -7.31894e-05 0.0113101)
(-2.43158e-05 -7.31894e-05 0.0113101)
(-7.16281e-05 -7.16281e-05 0.0113261)
(-0.000114886 -6.85448e-05 0.0113577)
(-0.000150982 -6.36667e-05 0.0114043)
(-0.00017709 -5.65168e-05 0.0114639)
(0.000170151 -9.07992e-05 0.0114836)
(0.000144526 -0.000102081 0.0114298)
(0.000109952 -0.000109952 0.011387)
(6.85448e-05 -0.000114886 0.0113577)
(2.32501e-05 -0.000117382 0.011343)
(-2.32501e-05 -0.000117382 0.011343)
(-6.85448e-05 -0.000114886 0.0113577)
(-0.000109952 -0.000109952 0.011387)
(-0.000144526 -0.000102081 0.0114298)
(-0.000170151 -9.07992e-05 0.0114836)
(0.00015774 -0.000120857 0.01151)
(0.000134258 -0.000134258 0.0114665)
(0.000102081 -0.000144526 0.0114298)
(6.36666e-05 -0.000150982 0.0114043)
(2.1568e-05 -0.000154362 0.0113915)
(-2.1568e-05 -0.000154362 0.0113915)
(-6.36667e-05 -0.000150982 0.0114043)
(-0.000102081 -0.000144526 0.0114298)
(-0.000134258 -0.000134258 0.0114665)
(-0.00015774 -0.000120857 0.01151)
(0.000146925 -0.000146925 0.0115354)
(0.000120857 -0.00015774 0.01151)
(9.07992e-05 -0.000170151 0.0114836)
(5.65167e-05 -0.00017709 0.0114639)
(1.902e-05 -0.000180918 0.0114539)
(-1.902e-05 -0.000180918 0.0114539)
(-5.65168e-05 -0.00017709 0.0114639)
(-9.07992e-05 -0.000170151 0.0114836)
(-0.000120857 -0.00015774 0.01151)
(-0.000146925 -0.000146925 0.0115354)
(5.08955e-05 5.08955e-05 0.011557)
(4.3923e-05 5.86887e-05 0.011554)
(3.45526e-05 6.61657e-05 0.0115439)
(2.2055e-05 7.07881e-05 0.0115353)
(7.51565e-06 7.32534e-05 0.0115307)
(-7.51564e-06 7.32534e-05 0.0115307)
(-2.20549e-05 7.07881e-05 0.0115353)
(-3.45525e-05 6.61658e-05 0.0115439)
(-4.39229e-05 5.86887e-05 0.011554)
(-5.08955e-05 5.08954e-05 0.011557)
(5.86887e-05 4.3923e-05 0.011554)
(5.27113e-05 5.27113e-05 0.0115369)
(4.18024e-05 5.95544e-05 0.0115201)
(2.67482e-05 6.40672e-05 0.0115079)
(9.17615e-06 6.6406e-05 0.0115016)
(-9.17614e-06 6.6406e-05 0.0115016)
(-2.67482e-05 6.40672e-05 0.0115079)
(-4.18024e-05 5.95544e-05 0.0115201)
(-5.27112e-05 5.27113e-05 0.0115369)
(-5.86886e-05 4.39229e-05 0.011554)
(6.61658e-05 3.45525e-05 0.0115439)
(5.95544e-05 4.18024e-05 0.0115201)
(4.72284e-05 4.72284e-05 0.0114996)
(3.01865e-05 5.07821e-05 0.0114852)
(1.03625e-05 5.25793e-05 0.0114778)
(-1.03625e-05 5.25793e-05 0.0114778)
(-3.01865e-05 5.07821e-05 0.0114852)
(-4.72284e-05 4.72284e-05 0.0114996)
(-5.95544e-05 4.18024e-05 0.0115201)
(-6.61657e-05 3.45525e-05 0.0115439)
(7.07881e-05 2.2055e-05 0.0115353)
(6.40672e-05 2.67482e-05 0.0115079)
(5.07821e-05 3.01865e-05 0.0114852)
(3.2439e-05 3.24391e-05 0.0114694)
(1.11384e-05 3.3574e-05 0.0114613)
(-1.11384e-05 3.3574e-05 0.0114613)
(-3.2439e-05 3.24391e-05 0.0114694)
(-5.07821e-05 3.01865e-05 0.0114852)
(-6.40672e-05 2.67482e-05 0.0115079)
(-7.07881e-05 2.20549e-05 0.0115353)
(7.32534e-05 7.51565e-06 0.0115307)
(6.6406e-05 9.17613e-06 0.0115016)
(5.25793e-05 1.03625e-05 0.0114778)
(3.3574e-05 1.11384e-05 0.0114613)
(1.1528e-05 1.1528e-05 0.0114528)
(-1.15279e-05 1.1528e-05 0.0114528)
(-3.3574e-05 1.11384e-05 0.0114613)
(-5.25793e-05 1.03625e-05 0.0114778)
(-6.6406e-05 9.17618e-06 0.0115016)
(-7.32534e-05 7.51568e-06 0.0115307)
(7.32534e-05 -7.51564e-06 0.0115307)
(6.6406e-05 -9.17614e-06 0.0115016)
(5.25793e-05 -1.03625e-05 0.0114778)
(3.3574e-05 -1.11384e-05 0.0114613)
(1.1528e-05 -1.15279e-05 0.0114528)
(-1.15279e-05 -1.15279e-05 0.0114528)
(-3.3574e-05 -1.11384e-05 0.0114613)
(-5.25793e-05 -1.03624e-05 0.0114778)
(-6.6406e-05 -9.17614e-06 0.0115016)
(-7.32534e-05 -7.51567e-06 0.0115307)
(7.07881e-05 -2.20549e-05 0.0115353)
(6.40672e-05 -2.67482e-05 0.0115079)
(5.07821e-05 -3.01865e-05 0.0114852)
(3.24391e-05 -3.2439e-05 0.0114694)
(1.11384e-05 -3.3574e-05 0.0114613)
(-1.11384e-05 -3.3574e-05 0.0114613)
(-3.2439e-05 -3.2439e-05 0.0114694)
(-5.07821e-05 -3.01865e-05 0.0114852)
(-6.40672e-05 -2.67483e-05 0.0115079)
(-7.07881e-05 -2.2055e-05 0.0115353)
(6.61657e-05 -3.45525e-05 0.0115439)
(5.95544e-05 -4.18025e-05 0.0115201)
(4.72284e-05 -4.72284e-05 0.0114996)
(3.01865e-05 -5.07821e-05 0.0114852)
(1.03625e-05 -5.25793e-05 0.0114778)
(-1.03624e-05 -5.25793e-05 0.0114778)
(-3.01865e-05 -5.07821e-05 0.0114852)
(-4.72285e-05 -4.72284e-05 0.0114996)
(-5.95545e-05 -4.18025e-05 0.0115201)
(-6.61657e-05 -3.45525e-05 0.0115439)
(5.86887e-05 -4.3923e-05 0.011554)
(5.27113e-05 -5.27113e-05 0.0115369)
(4.18025e-05 -5.95544e-05 0.0115201)
(2.67482e-05 -6.40671e-05 0.0115079)
(9.17616e-06 -6.6406e-05 0.0115016)
(-9.17613e-06 -6.6406e-05 0.0115016)
(-2.67482e-05 -6.40672e-05 0.0115079)
(-4.18025e-05 -5.95545e-05 0.0115201)
(-5.27113e-05 -5.27113e-05 0.0115369)
(-5.86886e-05 -4.39229e-05 0.011554)
(5.08955e-05 -5.08955e-05 0.011557)
(4.3923e-05 -5.86887e-05 0.011554)
(3.45525e-05 -6.61657e-05 0.0115439)
(2.20549e-05 -7.07881e-05 0.0115353)
(7.51565e-06 -7.32534e-05 0.0115307)
(-7.51565e-06 -7.32534e-05 0.0115307)
(-2.2055e-05 -7.07881e-05 0.0115353)
(-3.45526e-05 -6.61657e-05 0.0115439)
(-4.39229e-05 -5.86886e-05 0.011554)
(-5.08955e-05 -5.08955e-05 0.011557)
(1.69248e-05 1.69248e-05 0.0115535)
(1.49256e-05 2.02265e-05 0.0115615)
(1.20319e-05 2.33842e-05 0.0115601)
(7.77478e-06 2.54695e-05 0.0115575)
(2.66733e-06 2.65903e-05 0.0115559)
(-2.66736e-06 2.65903e-05 0.0115559)
(-7.77479e-06 2.54696e-05 0.0115575)
(-1.20319e-05 2.33843e-05 0.0115601)
(-1.49257e-05 2.02267e-05 0.0115615)
(-1.69248e-05 1.69249e-05 0.0115535)
(2.02265e-05 1.49257e-05 0.0115615)
(1.87895e-05 1.87896e-05 0.0115581)
(1.53101e-05 2.19352e-05 0.0115519)
(9.96101e-06 2.41151e-05 0.011547)
(3.44642e-06 2.52632e-05 0.0115444)
(-3.44641e-06 2.52633e-05 0.0115444)
(-9.96094e-06 2.41152e-05 0.011547)
(-1.53101e-05 2.19353e-05 0.0115519)
(-1.87896e-05 1.87897e-05 0.0115581)
(-2.02266e-05 1.49257e-05 0.0115615)
(2.33842e-05 1.20319e-05 0.0115601)
(2.19352e-05 1.53101e-05 0.0115519)
(1.79332e-05 1.79332e-05 0.0115435)
(1.16811e-05 1.97418e-05 0.0115372)
(4.04803e-06 2.06778e-05 0.011534)
(-4.04799e-06 2.06778e-05 0.011534)
(-1.16811e-05 1.97418e-05 0.0115372)
(-1.79332e-05 1.79332e-05 0.0115435)
(-2.19353e-05 1.53101e-05 0.0115519)
(-2.33843e-05 1.20319e-05 0.0115601)
(2.54695e-05 7.77477e-06 0.0115575)
(2.41151e-05 9.96103e-06 0.011547)
(1.97418e-05 1.16811e-05 0.0115372)
(1.2869e-05 1.2869e-05 0.0115301)
(4.46323e-06 1.34822e-05 0.0115264)
(-4.46318e-06 1.34822e-05 0.0115264)
(-1.2869e-05 1.2869e-05 0.0115301)
(-1.97418e-05 1.16811e-05 0.0115372)
(-2.41151e-05 9.96098e-06 0.011547)
(-2.54696e-05 7.77478e-06 0.0115575)
(2.65903e-05 2.66733e-06 0.0115559)
(2.52632e-05 3.44643e-06 0.0115444)
(2.06778e-05 4.04804e-06 0.011534)
(1.34822e-05 4.46324e-06 0.0115264)
(4.67683e-06 4.67684e-06 0.0115225)
(-4.6768e-06 4.67683e-06 0.0115225)
(-1.34821e-05 4.46321e-06 0.0115264)
(-2.06777e-05 4.04802e-06 0.011534)
(-2.52632e-05 3.44642e-06 0.0115444)
(-2.65903e-05 2.66736e-06 0.0115559)
(2.65904e-05 -2.66735e-06 0.0115559)
(2.52633e-05 -3.44639e-06 0.0115444)
(2.06778e-05 -4.04798e-06 0.011534)
(1.34822e-05 -4.46317e-06 0.0115264)
(4.67682e-06 -4.67679e-06 0.0115225)
(-4.67681e-06 -4.6768e-06 0.0115225)
(-1.34821e-05 -4.4632e-06 0.0115264)
(-2.06777e-05 -4.04801e-06 0.011534)
(-2.52632e-05 -3.44642e-06 0.0115444)
(-2.65903e-05 -2.66735e-06 0.0115559)
(2.54696e-05 -7.7748e-06 0.0115575)
(2.41152e-05 -9.96093e-06 0.011547)
(1.97418e-05 -1.1681e-05 0.0115372)
(1.2869e-05 -1.2869e-05 0.0115301)
(4.4632e-06 -1.34821e-05 0.0115264)
(-4.46321e-06 -1.34821e-05 0.0115264)
(-1.2869e-05 -1.2869e-05 0.0115301)
(-1.97418e-05 -1.16811e-05 0.0115372)
(-2.41151e-05 -9.96101e-06 0.011547)
(-2.54696e-05 -7.77482e-06 0.0115575)
(2.33843e-05 -1.20319e-05 0.0115601)
(2.19353e-05 -1.53101e-05 0.0115519)
(1.79332e-05 -1.79332e-05 0.0115435)
(1.16811e-05 -1.97418e-05 0.0115372)
(4.04802e-06 -2.06778e-05 0.011534)
(-4.04801e-06 -2.06777e-05 0.011534)
(-1.16811e-05 -1.97418e-05 0.0115372)
(-1.79332e-05 -1.79332e-05 0.0115435)
(-2.19353e-05 -1.53102e-05 0.0115519)
(-2.33842e-05 -1.20319e-05 0.0115601)
(2.02266e-05 -1.49257e-05 0.0115615)
(1.87897e-05 -1.87897e-05 0.0115581)
(1.53101e-05 -2.19353e-05 0.0115519)
(9.96096e-06 -2.41151e-05 0.011547)
(3.44642e-06 -2.52632e-05 0.0115444)
(-3.44642e-06 -2.52632e-05 0.0115444)
(-9.961e-06 -2.41151e-05 0.011547)
(-1.53102e-05 -2.19353e-05 0.0115519)
(-1.87896e-05 -1.87896e-05 0.0115581)
(-2.02265e-05 -1.49256e-05 0.0115615)
(1.69248e-05 -1.69248e-05 0.0115535)
(1.49257e-05 -2.02266e-05 0.0115615)
(1.2032e-05 -2.33843e-05 0.0115601)
(7.77482e-06 -2.54696e-05 0.0115575)
(2.66738e-06 -2.65904e-05 0.0115559)
(-2.66735e-06 -2.65903e-05 0.0115559)
(-7.77482e-06 -2.54696e-05 0.0115575)
(-1.2032e-05 -2.33842e-05 0.0115601)
(-1.49256e-05 -2.02265e-05 0.0115615)
(-1.69248e-05 -1.69248e-05 0.0115535)
(5.9448e-06 5.94486e-06 0.0115486)
(5.297e-06 7.19305e-06 0.0115603)
(4.3261e-06 8.39267e-06 0.0115621)
(2.81165e-06 9.20703e-06 0.0115618)
(9.68208e-07 9.64586e-06 0.0115615)
(-9.68237e-07 9.64586e-06 0.0115615)
(-2.81163e-06 9.20705e-06 0.0115618)
(-4.32607e-06 8.39272e-06 0.0115621)
(-5.29699e-06 7.19308e-06 0.0115603)
(-5.94478e-06 5.94487e-06 0.0115486)
(7.19305e-06 5.29701e-06 0.0115603)
(6.80076e-06 6.80077e-06 0.0115621)
(5.62229e-06 8.05119e-06 0.0115604)
(3.68996e-06 8.94059e-06 0.0115587)
(1.28264e-06 9.41377e-06 0.0115577)
(-1.28266e-06 9.41379e-06 0.0115577)
(-3.68997e-06 8.94063e-06 0.0115587)
(-5.62229e-06 8.05122e-06 0.0115604)
(-6.80069e-06 6.80078e-06 0.0115621)
(-7.19299e-06 5.29703e-06 0.0115603)
(8.39269e-06 4.3261e-06 0.0115621)
(8.05119e-06 5.6223e-06 0.0115604)
(6.69538e-06 6.69537e-06 0.0115573)
(4.40871e-06 7.45768e-06 0.011555)
(1.53633e-06 7.85821e-06 0.0115537)
(-1.5363e-06 7.85823e-06 0.0115537)
(-4.40868e-06 7.45772e-06 0.011555)
(-6.69535e-06 6.69542e-06 0.0115573)
(-8.05116e-06 5.62234e-06 0.0115604)
(-8.39269e-06 4.32606e-06 0.0115621)
(9.20705e-06 2.81166e-06 0.0115618)
(8.9406e-06 3.68999e-06 0.0115587)
(7.45768e-06 4.40872e-06 0.011555)
(4.92117e-06 4.92117e-06 0.0115522)
(1.71734e-06 5.19017e-06 0.0115507)
(-1.71729e-06 5.19017e-06 0.0115507)
(-4.92114e-06 4.92118e-06 0.0115522)
(-7.45767e-06 4.40871e-06 0.011555)
(-8.94059e-06 3.68998e-06 0.0115587)
(-9.20705e-06 2.81163e-06 0.0115618)
(9.64587e-06 9.68217e-07 0.0115615)
(9.41377e-06 1.28266e-06 0.0115577)
(7.8582e-06 1.53633e-06 0.0115537)
(5.19016e-06 1.71734e-06 0.0115507)
(1.81214e-06 1.81214e-06 0.0115491)
(-1.81209e-06 1.81213e-06 0.0115491)
(-5.19013e-06 1.71733e-06 0.0115507)
(-7.85818e-06 1.53633e-06 0.0115537)
(-9.41376e-06 1.28266e-06 0.0115577)
(-9.64587e-06 9.68233e-07 0.0115615)
(9.64588e-06 -9.68253e-07 0.0115615)
(9.41379e-06 -1.28264e-06 0.0115577)
(7.85821e-06 -1.53629e-06 0.0115537)
(5.19017e-06 -1.71729e-06 0.0115507)
(1.81213e-06 -1.81209e-06 0.0115491)
(-1.8121e-06 -1.81209e-06 0.0115491)
(-5.19013e-06 -1.7173e-06 0.0115507)
(-7.85818e-06 -1.5363e-06 0.0115537)
(-9.41377e-06 -1.28265e-06 0.0115577)
(-9.64587e-06 -9.6824e-07 0.0115615)
(9.20709e-06 -2.81165e-06 0.0115618)
(8.94065e-06 -3.68994e-06 0.0115587)
(7.4577e-06 -4.40866e-06 0.011555)
(4.92117e-06 -4.92112e-06 0.0115522)
(1.71733e-06 -5.19013e-06 0.0115507)
(-1.71731e-06 -5.19013e-06 0.0115507)
(-4.92114e-06 -4.92114e-06 0.0115522)
(-7.45767e-06 -4.40868e-06 0.011555)
(-8.94062e-06 -3.68998e-06 0.0115587)
(-9.20706e-06 -2.81167e-06 0.0115618)
(8.39276e-06 -4.32603e-06 0.0115621)
(8.05125e-06 -5.6223e-06 0.0115604)
(6.69538e-06 -6.69534e-06 0.0115573)
(4.4087e-06 -7.45767e-06 0.011555)
(1.53632e-06 -7.85819e-06 0.0115537)
(-1.5363e-06 -7.85819e-06 0.0115537)
(-4.40868e-06 -7.45767e-06 0.011555)
(-6.69539e-06 -6.69537e-06 0.0115573)
(-8.05123e-06 -5.62238e-06 0.0115604)
(-8.39269e-06 -4.32608e-06 0.0115621)
(7.19309e-06 -5.29698e-06 0.0115603)
(6.80078e-06 -6.80078e-06 0.0115621)
(5.62232e-06 -8.05121e-06 0.0115604)
(3.68995e-06 -8.94062e-06 0.0115587)
(1.28266e-06 -9.41377e-06 0.0115577)
(-1.28264e-06 -9.41378e-06 0.0115577)
(-3.68996e-06 -8.94062e-06 0.0115587)
(-5.62238e-06 -8.05124e-06 0.0115604)
(-6.80077e-06 -6.80079e-06 0.0115621)
(-7.19299e-06 -5.29697e-06 0.0115603)
(5.94484e-06 -5.94481e-06 0.0115486)
(5.29701e-06 -7.19304e-06 0.0115603)
(4.3261e-06 -8.39271e-06 0.0115621)
(2.81165e-06 -9.20704e-06 0.0115618)
(9.68238e-07 -9.64586e-06 0.0115615)
(-9.68237e-07 -9.64587e-06 0.0115615)
(-2.81167e-06 -9.20706e-06 0.0115618)
(-4.3261e-06 -8.39272e-06 0.0115621)
(-5.29697e-06 -7.193e-06 0.0115603)
(-5.94481e-06 -5.94479e-06 0.0115486)
(2.09259e-06 2.09255e-06 0.0115468)
(1.88365e-06 2.56761e-06 0.0115598)
(1.5559e-06 3.02319e-06 0.0115626)
(1.017e-06 3.33759e-06 0.0115631)
(3.51463e-07 3.50689e-06 0.0115632)
(-3.51514e-07 3.5069e-06 0.0115632)
(-1.01704e-06 3.33764e-06 0.0115631)
(-1.55591e-06 3.02334e-06 0.0115626)
(-1.88366e-06 2.56782e-06 0.0115598)
(-2.09256e-06 2.0927e-06 0.0115468)
(2.5676e-06 1.88366e-06 0.0115598)
(2.46132e-06 2.4613e-06 0.0115633)
(2.05867e-06 2.94862e-06 0.0115631)
(1.36076e-06 3.30048e-06 0.0115626)
(4.748e-07 3.48858e-06 0.0115622)
(-4.74779e-07 3.4886e-06 0.0115622)
(-1.36069e-06 3.30056e-06 0.0115626)
(-2.05861e-06 2.94876e-06 0.0115631)
(-2.46137e-06 2.46149e-06 0.0115633)
(-2.56773e-06 1.88374e-06 0.0115598)
(3.02312e-06 1.55591e-06 0.0115626)
(2.9486e-06 2.05866e-06 0.0115631)
(2.48362e-06 2.4836e-06 0.0115621)
(1.64864e-06 2.79057e-06 0.0115612)
(5.76895e-07 2.95314e-06 0.0115608)
(-5.76839e-07 2.95315e-06 0.0115608)
(-1.64856e-06 2.79059e-06 0.0115612)
(-2.48351e-06 2.48358e-06 0.0115621)
(-2.94868e-06 2.05867e-06 0.0115631)
(-3.0233e-06 1.5559e-06 0.0115626)
(3.33754e-06 1.01701e-06 0.0115631)
(3.30047e-06 1.3608e-06 0.0115626)
(2.79058e-06 1.64866e-06 0.0115612)
(1.8576e-06 1.85761e-06 0.0115602)
(6.51112e-07 1.9683e-06 0.0115596)
(-6.51055e-07 1.96829e-06 0.0115596)
(-1.85755e-06 1.8576e-06 0.0115602)
(-2.79052e-06 1.6486e-06 0.0115612)
(-3.30051e-06 1.3607e-06 0.0115626)
(-3.33763e-06 1.01703e-06 0.0115631)
(3.50689e-06 3.5146e-07 0.0115632)
(3.48856e-06 4.74824e-07 0.0115622)
(2.95313e-06 5.76903e-07 0.0115608)
(1.96828e-06 6.51119e-07 0.0115596)
(6.9036e-07 6.90368e-07 0.011559)
(-6.90314e-07 6.90359e-07 0.011559)
(-1.96825e-06 6.51096e-07 0.0115596)
(-2.9531e-06 5.76869e-07 0.0115608)
(-3.48856e-06 4.74778e-07 0.0115622)
(-3.50691e-06 3.51506e-07 0.0115632)
(3.50689e-06 -3.51527e-07 0.0115632)
(3.4886e-06 -4.74779e-07 0.0115622)
(2.95314e-06 -5.76838e-07 0.0115608)
(1.96829e-06 -6.51053e-07 0.0115596)
(6.90353e-07 -6.90311e-07 0.011559)
(-6.90327e-07 -6.90321e-07 0.011559)
(-1.96826e-06 -6.51081e-07 0.0115596)
(-2.95311e-06 -5.76868e-07 0.0115608)
(-3.48856e-06 -4.74805e-07 0.0115622)
(-3.50691e-06 -3.51495e-07 0.0115632)
(3.33763e-06 -1.01701e-06 0.0115631)
(3.30056e-06 -1.36069e-06 0.0115626)
(2.79058e-06 -1.64856e-06 0.0115612)
(1.85759e-06 -1.85756e-06 0.0115602)
(6.51092e-07 -1.96825e-06 0.0115596)
(-6.51083e-07 -1.96825e-06 0.0115596)
(-1.85757e-06 -1.85757e-06 0.0115602)
(-2.79055e-06 -1.6486e-06 0.0115612)
(-3.3005e-06 -1.36076e-06 0.0115626)
(-3.3376e-06 -1.01704e-06 0.0115631)
(3.02333e-06 -1.55588e-06 0.0115626)
(2.94873e-06 -2.05862e-06 0.0115631)
(2.48356e-06 -2.48353e-06 0.0115621)
(1.6486e-06 -2.79054e-06 0.0115612)
(5.7688e-07 -2.9531e-06 0.0115608)
(-5.76866e-07 -2.9531e-06 0.0115608)
(-1.64861e-06 -2.79055e-06 0.0115612)
(-2.48359e-06 -2.4836e-06 0.0115621)
(-2.94867e-06 -2.05872e-06 0.0115631)
(-3.02321e-06 -1.55591e-06 0.0115626)
(2.56783e-06 -1.8837e-06 0.0115598)
(2.46145e-06 -2.46144e-06 0.0115633)
(2.05865e-06 -2.94872e-06 0.0115631)
(1.36072e-06 -3.3005e-06 0.0115626)
(4.74797e-07 -3.48855e-06 0.0115622)
(-4.7481e-07 -3.48855e-06 0.0115622)
(-1.36077e-06 -3.30049e-06 0.0115626)
(-2.05871e-06 -2.94865e-06 0.0115631)
(-2.46135e-06 -2.46134e-06 0.0115633)
(-2.56762e-06 -1.88367e-06 0.0115598)
(2.09268e-06 -2.09259e-06 0.0115468)
(1.8837e-06 -2.56774e-06 0.0115598)
(1.55596e-06 -3.02329e-06 0.0115626)
(1.01708e-06 -3.33761e-06 0.0115631)
(3.5152e-07 -3.50691e-06 0.0115632)
(-3.51499e-07 -3.5069e-06 0.0115632)
(-1.01702e-06 -3.33759e-06 0.0115631)
(-1.55591e-06 -3.02321e-06 0.0115626)
(-1.88368e-06 -2.56761e-06 0.0115598)
(-2.09258e-06 -2.09255e-06 0.0115468)
(7.39501e-07 7.39449e-07 0.0115462)
(6.6969e-07 9.15629e-07 0.0115596)
(5.56862e-07 1.08488e-06 0.0115628)
(3.65223e-07 1.20328e-06 0.0115636)
(1.26495e-07 1.26714e-06 0.0115637)
(-1.26522e-07 1.26714e-06 0.0115637)
(-3.65196e-07 1.20326e-06 0.0115636)
(-5.56824e-07 1.08486e-06 0.0115628)
(-6.6966e-07 9.15676e-07 0.0115596)
(-7.39428e-07 7.39566e-07 0.0115462)
(9.15617e-07 6.69662e-07 0.0115596)
(8.85699e-07 8.85678e-07 0.0115638)
(7.46642e-07 1.07038e-06 0.0115641)
(4.95964e-07 1.20541e-06 0.011564)
(1.73515e-07 1.27795e-06 0.0115639)
(-1.73532e-07 1.27796e-06 0.0115639)
(-4.95968e-07 1.20542e-06 0.011564)
(-7.46608e-07 1.07037e-06 0.0115641)
(-8.85635e-07 8.85713e-07 0.0115638)
(-9.15601e-07 6.69697e-07 0.0115596)
(1.08485e-06 5.56855e-07 0.0115628)
(1.07039e-06 7.46639e-07 0.0115641)
(9.09894e-07 9.09887e-07 0.0115639)
(6.07604e-07 1.02945e-06 0.0115635)
(2.1327e-07 1.09322e-06 0.0115634)
(-2.13264e-07 1.09323e-06 0.0115634)
(-6.07587e-07 1.02948e-06 0.0115635)
(-9.09838e-07 9.09905e-07 0.0115639)
(-1.07034e-06 7.46652e-07 0.0115641)
(-1.08488e-06 5.56844e-07 0.0115628)
(1.20328e-06 3.65235e-07 0.0115636)
(1.20542e-06 4.95977e-07 0.011564)
(1.02946e-06 6.07603e-07 0.0115635)
(6.89838e-07 6.89839e-07 0.0115631)
(2.42617e-07 7.33738e-07 0.0115629)
(-2.42596e-07 7.33743e-07 0.0115629)
(-6.89826e-07 6.89858e-07 0.0115631)
(-1.02943e-06 6.07612e-07 0.0115635)
(-1.20538e-06 4.95955e-07 0.011564)
(-1.20327e-06 3.65215e-07 0.0115636)
(1.26715e-06 1.26499e-07 0.0115637)
(1.27795e-06 1.7351e-07 0.0115639)
(1.09322e-06 2.13263e-07 0.0115634)
(7.33738e-07 2.42616e-07 0.0115629)
(2.58266e-07 2.58267e-07 0.0115627)
(-2.58236e-07 2.58268e-07 0.0115627)
(-7.33716e-07 2.42626e-07 0.0115629)
(-1.0932e-06 2.13287e-07 0.0115634)
(-1.27792e-06 1.73525e-07 0.0115639)
(-1.26714e-06 1.26511e-07 0.0115637)
(1.26714e-06 -1.26529e-07 0.0115637)
(1.27796e-06 -1.7352e-07 0.0115639)
(1.09324e-06 -2.13255e-07 0.0115634)
(7.33748e-07 -2.42592e-07 0.0115629)
(2.58268e-07 -2.58232e-07 0.0115627)
(-2.58236e-07 -2.58234e-07 0.0115627)
(-7.33713e-07 -2.42594e-07 0.0115629)
(-1.0932e-06 -2.13254e-07 0.0115634)
(-1.27793e-06 -1.73526e-07 0.0115639)
(-1.26715e-06 -1.26515e-07 0.0115637)
(1.20329e-06 -3.652e-07 0.0115636)
(1.20544e-06 -4.95927e-07 0.011564)
(1.02947e-06 -6.07576e-07 0.0115635)
(6.89853e-07 -6.89822e-07 0.0115631)
(2.42624e-07 -7.33709e-07 0.0115629)
(-2.42598e-07 -7.33712e-07 0.0115629)
(-6.89828e-07 -6.89829e-07 0.0115631)
(-1.02945e-06 -6.07591e-07 0.0115635)
(-1.2054e-06 -4.95967e-07 0.011564)
(-1.20327e-06 -3.652e-07 0.0115636)
(1.08492e-06 -5.56804e-07 0.0115628)
(1.07039e-06 -7.4663e-07 0.0115641)
(9.09877e-07 -9.09874e-07 0.0115639)
(6.07614e-07 -1.02944e-06 0.0115635)
(2.13284e-07 -1.09319e-06 0.0115634)
(-2.13265e-07 -1.09321e-06 0.0115634)
(-6.07592e-07 -1.02946e-06 0.0115635)
(-9.09878e-07 -9.09873e-07 0.0115639)
(-1.07035e-06 -7.46631e-07 0.0115641)
(-1.08487e-06 -5.56836e-07 0.0115628)
(9.15631e-07 -6.69637e-07 0.0115596)
(8.85671e-07 -8.8567e-07 0.0115638)
(7.46658e-07 -1.07033e-06 0.0115641)
(4.95992e-07 -1.20536e-06 0.011564)
(1.73524e-07 -1.27791e-06 0.0115639)
(-1.73536e-07 -1.27792e-06 0.0115639)
(-4.95957e-07 -1.20539e-06 0.011564)
(-7.4663e-07 -1.07036e-06 0.0115641)
(-8.85669e-07 -8.8568e-07 0.0115638)
(-9.15627e-07 -6.69716e-07 0.0115596)
(7.39471e-07 -7.3942e-07 0.0115462)
(6.69687e-07 -9.15539e-07 0.0115596)
(5.56873e-07 -1.08481e-06 0.0115628)
(3.65215e-07 -1.20325e-06 0.0115636)
(1.26493e-07 -1.26714e-06 0.0115637)