/*--------------------------------*- C++ -*----------------------------------*\
| =========                 |                                                 |
| \\      /  F ield         | OpenFOAM: The Open Source CFD Toolbox           |
|  \\    /   O peration     | Version:  2412                                  |
|   \\  /    A nd           | Website:  www.openfoam.com                      |
|    \\/     M anipulation  |                                                 |
\*---------------------------------------------------------------------------*/
FoamFile
{
    version     2.0;
    format      ascii;
    arch        "LSB;label=32;scalar=64";
    class       surfaceScalarField;
    location    "7.2";
    object      phi;
}
// * * * * * * * * * * * * * * * * * * * * * * * * * * * * * * * * * * * * * //

dimensions      [0 3 -1 0 0 0 0];

oriented        oriented;

internalField   nonuniform List<scalar> 
43700
(
1.85663e-07
1.85663e-07
5.49781e-07
-2.25544e-07
-2.25544e-07
1.3751e-07
1.64924e-07
5.9389e-07
-2.01277e-07
9.11525e-08
1.5151e-07
6.25257e-07
-1.90979e-07
4.52568e-08
1.42541e-07
6.45413e-07
-1.82346e-07
2.02495e-17
1.38218e-07
6.55323e-07
-1.78356e-07
-4.52568e-08
1.38218e-07
6.55323e-07
-1.78356e-07
-9.11525e-08
1.42541e-07
6.45413e-07
-1.82346e-07
-1.3751e-07
1.5151e-07
6.25257e-07
-1.90979e-07
-1.85663e-07
1.64924e-07
5.9389e-07
-2.01277e-07
1.85663e-07
5.49781e-07
-2.25544e-07
-2.25544e-07
1.64924e-07
1.3751e-07
5.9389e-07
-2.01277e-07
1.22784e-07
1.22784e-07
6.30123e-07
8.09459e-08
1.11544e-07
6.55494e-07
4.00949e-08
1.04011e-07
6.71878e-07
3.23276e-17
1.00316e-07
6.79969e-07
-4.00949e-08
1.00316e-07
6.79969e-07
-8.09459e-08
1.04011e-07
6.71878e-07
-1.22784e-07
1.11544e-07
6.55494e-07
-1.64924e-07
1.22784e-07
6.30123e-07
1.3751e-07
5.9389e-07
-2.01277e-07
1.5151e-07
9.11526e-08
6.25257e-07
-1.90979e-07
1.11544e-07
8.09459e-08
6.55494e-07
7.30533e-08
7.30532e-08
6.76855e-07
3.6074e-08
6.77498e-08
6.90803e-07
1.75806e-16
6.51325e-08
6.97736e-07
-3.6074e-08
6.51325e-08
6.97736e-07
-7.30532e-08
6.77498e-08
6.90803e-07
-1.11544e-07
7.30533e-08
6.76855e-07
-1.5151e-07
8.09459e-08
6.55494e-07
9.11525e-08
6.25257e-07
-1.90979e-07
1.42541e-07
4.52568e-08
6.45413e-07
-1.82346e-07
1.04011e-07
4.00949e-08
6.71878e-07
6.77498e-08
3.6074e-08
6.90803e-07
3.33587e-08
3.33587e-08
7.03285e-07
7.9309e-17
3.20137e-08
7.0952e-07
-3.33587e-08
3.20137e-08
7.0952e-07
-6.77498e-08
3.33587e-08
7.03285e-07
-1.04011e-07
3.6074e-08
6.90803e-07
-1.42541e-07
4.00949e-08
6.71878e-07
4.52568e-08
6.45413e-07
-1.82346e-07
1.38218e-07
4.76734e-17
6.55323e-07
-1.78356e-07
1.00316e-07
9.02413e-17
6.79969e-07
6.51325e-08
1.49227e-16
6.97736e-07
3.20137e-08
8.93496e-17
7.0952e-07
-1.40054e-16
-9.20705e-17
7.1542e-07
-3.20137e-08
9.84562e-17
7.1542e-07
-6.51325e-08
2.19974e-16
7.0952e-07
-1.00316e-07
1.29786e-16
6.97736e-07
-1.38218e-07
6.2995e-17
6.79969e-07
1.89182e-16
6.55323e-07
-1.78356e-07
1.38218e-07
-4.52568e-08
6.55323e-07
-1.78356e-07
1.00316e-07
-4.00949e-08
6.79969e-07
6.51325e-08
-3.6074e-08
6.97736e-07
3.20137e-08
-3.33587e-08
7.0952e-07
1.73714e-16
-3.20137e-08
7.1542e-07
-3.20137e-08
-3.20137e-08
7.1542e-07
-6.51325e-08
-3.33587e-08
7.0952e-07
-1.00316e-07
-3.6074e-08
6.97736e-07
-1.38218e-07
-4.00949e-08
6.79969e-07
-4.52568e-08
6.55323e-07
-1.78356e-07
1.42541e-07
-9.11525e-08
6.45413e-07
-1.82346e-07
1.04011e-07
-8.09459e-08
6.71878e-07
6.77498e-08
-7.30533e-08
6.90803e-07
3.33587e-08
-6.77498e-08
7.03285e-07
-3.33937e-17
-6.51325e-08
7.0952e-07
-3.33587e-08
-6.51325e-08
7.0952e-07
-6.77498e-08
-6.77498e-08
7.03285e-07
-1.04011e-07
-7.30533e-08
6.90803e-07
-1.42541e-07
-8.09459e-08
6.71878e-07
-9.11525e-08
6.45413e-07
-1.82346e-07
1.5151e-07
-1.3751e-07
6.25257e-07
-1.90979e-07
1.11544e-07
-1.22784e-07
6.55494e-07
7.30533e-08
-1.11544e-07
6.76855e-07
3.6074e-08
-1.04011e-07
6.90803e-07
-2.20445e-16
-1.00316e-07
6.97736e-07
-3.6074e-08
-1.00316e-07
6.97736e-07
-7.30533e-08
-1.04011e-07
6.90803e-07
-1.11544e-07
-1.11544e-07
6.76855e-07
-1.5151e-07
-1.22784e-07
6.55494e-07
-1.3751e-07
6.25257e-07
-1.90979e-07
1.64924e-07
-1.85663e-07
5.9389e-07
-2.01277e-07
1.22784e-07
-1.64924e-07
6.30123e-07
8.09459e-08
-1.5151e-07
6.55494e-07
4.00949e-08
-1.42541e-07
6.71878e-07
-2.41836e-16
-1.38218e-07
6.79969e-07
-4.00949e-08
-1.38218e-07
6.79969e-07
-8.09459e-08
-1.42541e-07
6.71878e-07
-1.22784e-07
-1.5151e-07
6.55494e-07
-1.64924e-07
-1.64924e-07
6.30123e-07
-1.85663e-07
5.9389e-07
-2.01277e-07
1.85663e-07
5.49781e-07
-2.25544e-07
-2.25544e-07
1.3751e-07
5.9389e-07
-2.01277e-07
9.11525e-08
6.25257e-07
-1.90979e-07
4.52568e-08
6.45413e-07
-1.82346e-07
7.31064e-17
6.55323e-07
-1.78356e-07
-4.52568e-08
6.55323e-07
-1.78356e-07
-9.11525e-08
6.45413e-07
-1.82346e-07
-1.3751e-07
6.25257e-07
-1.90979e-07
-1.85663e-07
5.9389e-07
-2.01277e-07
5.49781e-07
-2.25544e-07
-2.25544e-07
1.28409e-07
1.28409e-07
5.86359e-07
-1.46698e-07
-1.46698e-07
1.01122e-07
1.26099e-07
6.42322e-07
-1.47244e-07
6.9132e-08
1.22634e-07
6.80857e-07
-1.46244e-07
3.49188e-08
1.19321e-07
7.04706e-07
-1.44401e-07
-3.1443e-16
1.1758e-07
7.16117e-07
-1.43455e-07
-3.49188e-08
1.1758e-07
7.16117e-07
-1.43455e-07
-6.9132e-08
1.19321e-07
7.04706e-07
-1.44401e-07
-1.01122e-07
1.22634e-07
6.80857e-07
-1.46244e-07
-1.28409e-07
1.26099e-07
6.42322e-07
-1.47244e-07
1.28409e-07
5.86359e-07
-1.46698e-07
-1.46698e-07
1.26099e-07
1.01122e-07
6.42322e-07
-1.47244e-07
9.72976e-08
9.72976e-08
6.87726e-07
6.55398e-08
9.30133e-08
7.16872e-07
3.28275e-08
8.95381e-08
7.34373e-07
5.48246e-17
8.77306e-08
7.42646e-07
-3.28275e-08
8.77306e-08
7.42646e-07
-6.55398e-08
8.95381e-08
7.34373e-07
-9.72976e-08
9.30133e-08
7.16872e-07
-1.26099e-07
9.72976e-08
6.87726e-07
1.01122e-07
6.42322e-07
-1.47244e-07
1.22634e-07
6.9132e-08
6.80857e-07
-1.46244e-07
9.30133e-08
6.55398e-08
7.16872e-07
6.19179e-08
6.19179e-08
7.39046e-07
3.08284e-08
5.91964e-08
7.52234e-07
1.93087e-16
5.78049e-08
7.5849e-07
-3.08284e-08
5.78049e-08
7.5849e-07
-6.19179e-08
5.91964e-08
7.52234e-07
-9.30133e-08
6.19179e-08
7.39046e-07
-1.22634e-07
6.55398e-08
7.16872e-07
6.9132e-08
6.80857e-07
-1.46244e-07
1.19321e-07
3.49188e-08
7.04706e-07
-1.44401e-07
8.95381e-08
3.28275e-08
7.34373e-07
5.91964e-08
3.08284e-08
7.52234e-07
2.93755e-08
2.93755e-08
7.62927e-07
1.36913e-16
2.86398e-08
7.6806e-07
-2.93755e-08
2.86398e-08
7.6806e-07
-5.91964e-08
2.93755e-08
7.62927e-07
-8.95381e-08
3.08284e-08
7.52234e-07
-1.19321e-07
3.28275e-08
7.34373e-07
3.49188e-08
7.04706e-07
-1.44401e-07
1.1758e-07
-2.63909e-16
7.16117e-07
-1.43455e-07
8.77306e-08
-1.30669e-17
7.42646e-07
5.78049e-08
3.00127e-16
7.5849e-07
2.86398e-08
9.20306e-17
7.6806e-07
-2.06764e-17
-1.93477e-16
7.727e-07
-2.86398e-08
-6.21612e-17
7.727e-07
-5.78049e-08
1.69913e-16
7.6806e-07
-8.77306e-08
1.86433e-16
7.5849e-07
-1.1758e-07
8.94126e-17
7.42646e-07
9.48326e-17
7.16117e-07
-1.43455e-07
1.1758e-07
-3.49188e-08
7.16117e-07
-1.43455e-07
8.77306e-08
-3.28275e-08
7.42646e-07
5.78049e-08
-3.08284e-08
7.5849e-07
2.86398e-08
-2.93755e-08
7.6806e-07
1.84602e-16
-2.86398e-08
7.727e-07
-2.86398e-08
-2.86398e-08
7.727e-07
-5.78049e-08
-2.93755e-08
7.6806e-07
-8.77306e-08
-3.08284e-08
7.5849e-07
-1.1758e-07
-3.28275e-08
7.42646e-07
-3.49188e-08
7.16117e-07
-1.43455e-07
1.19321e-07
-6.9132e-08
7.04706e-07
-1.44401e-07
8.95381e-08
-6.55398e-08
7.34373e-07
5.91964e-08
-6.19179e-08
7.52234e-07
2.93755e-08
-5.91964e-08
7.62927e-07
-2.57654e-19
-5.78049e-08
7.6806e-07
-2.93755e-08
-5.78049e-08
7.6806e-07
-5.91964e-08
-5.91964e-08
7.62927e-07
-8.95381e-08
-6.19179e-08
7.52234e-07
-1.19321e-07
-6.55398e-08
7.34373e-07
-6.9132e-08
7.04706e-07
-1.44401e-07
1.22634e-07
-1.01122e-07
6.80857e-07
-1.46244e-07
9.30133e-08
-9.72976e-08
7.16872e-07
6.19179e-08
-9.30133e-08
7.39046e-07
3.08284e-08
-8.95381e-08
7.52234e-07
-2.37328e-16
-8.77306e-08
7.5849e-07
-3.08284e-08
-8.77306e-08
7.5849e-07
-6.19179e-08
-8.95381e-08
7.52234e-07
-9.30133e-08
-9.30133e-08
7.39046e-07
-1.22634e-07
-9.72976e-08
7.16872e-07
-1.01122e-07
6.80857e-07
-1.46244e-07
1.26099e-07
-1.28409e-07
6.42322e-07
-1.47244e-07
9.72976e-08
-1.26099e-07
6.87726e-07
6.55398e-08
-1.22634e-07
7.16872e-07
3.28275e-08
-1.19321e-07
7.34373e-07
-2.07435e-16
-1.1758e-07
7.42646e-07
-3.28275e-08
-1.1758e-07
7.42646e-07
-6.55398e-08
-1.19321e-07
7.34373e-07
-9.72976e-08
-1.22634e-07
7.16872e-07
-1.26099e-07
-1.26099e-07
6.87726e-07
-1.28409e-07
6.42322e-07
-1.47244e-07
1.28409e-07
5.86359e-07
-1.46698e-07
-1.46698e-07
1.01122e-07
6.42322e-07
-1.47244e-07
6.9132e-08
6.80857e-07
-1.46244e-07
3.49188e-08
7.04706e-07
-1.44401e-07
2.1955e-16
7.16117e-07
-1.43455e-07
-3.49188e-08
7.16117e-07
-1.43455e-07
-6.9132e-08
7.04706e-07
-1.44401e-07
-1.01122e-07
6.80857e-07
-1.46244e-07
-1.28409e-07
6.42322e-07
-1.47244e-07
5.86359e-07
-1.46698e-07
-1.46698e-07
9.56912e-08
9.56912e-08
5.96472e-07
-1.00747e-07
-1.00747e-07
8.01998e-08
1.00956e-07
6.64793e-07
-1.07936e-07
5.71217e-08
1.03049e-07
7.12356e-07
-1.1147e-07
2.95771e-08
1.03387e-07
7.41867e-07
-1.13003e-07
-9.27431e-17
1.0335e-07
7.55949e-07
-1.13605e-07
-2.95772e-08
1.0335e-07
7.55949e-07
-1.13605e-07
-5.71217e-08
1.03387e-07
7.41867e-07
-1.13003e-07
-8.01998e-08
1.03049e-07
7.12356e-07
-1.1147e-07
-9.56912e-08
1.00956e-07
6.64793e-07
-1.07936e-07
9.56912e-08
5.96472e-07
-1.00747e-07
-1.00747e-07
1.00956e-07
8.01998e-08
6.64793e-07
-1.07936e-07
8.31754e-08
8.31754e-08
7.23287e-07
5.86169e-08
8.38516e-08
7.60629e-07
3.0162e-08
8.3478e-08
7.82737e-07
6.2307e-16
8.31091e-08
7.93049e-07
-3.0162e-08
8.31091e-08
7.93049e-07
-5.86169e-08
8.3478e-08
7.82737e-07
-8.31754e-08
8.38516e-08
7.60629e-07
-1.00956e-07
8.31754e-08
7.23287e-07
8.01998e-08
6.64793e-07
-1.07936e-07
1.03049e-07
5.71217e-08
7.12356e-07
-1.1147e-07
8.38516e-08
5.86169e-08
7.60629e-07
5.85894e-08
5.85894e-08
7.8957e-07
3.00179e-08
5.80453e-08
8.06238e-07
5.55977e-16
5.76515e-08
8.13965e-07
-3.00179e-08
5.76515e-08
8.13965e-07
-5.85894e-08
5.80453e-08
8.06238e-07
-8.38516e-08
5.85894e-08
7.8957e-07
-1.03049e-07
5.86169e-08
7.60629e-07
5.71217e-08
7.12356e-07
-1.1147e-07
1.03387e-07
2.95771e-08
7.41867e-07
-1.13003e-07
8.3478e-08
3.0162e-08
7.82737e-07
5.80453e-08
3.00179e-08
8.06238e-07
2.96719e-08
2.96719e-08
8.19673e-07
1.89607e-16
2.94397e-08
8.25944e-07
-2.96719e-08
2.94397e-08
8.25944e-07
-5.80453e-08
2.96719e-08
8.19673e-07
-8.3478e-08
3.00179e-08
8.06238e-07
-1.03387e-07
3.0162e-08
7.82737e-07
2.95772e-08
7.41867e-07
-1.13003e-07
1.0335e-07
-2.4549e-16
7.55949e-07
-1.13605e-07
8.31091e-08
5.37049e-16
7.93049e-07
5.76515e-08
6.29526e-16
8.13965e-07
2.94397e-08
2.41175e-16
8.25944e-07
1.54976e-16
1.45106e-16
8.31579e-07
-2.94397e-08
2.91119e-16
8.31579e-07
-5.76515e-08
4.81878e-16
8.25944e-07
-8.31091e-08
1.81288e-16
8.13965e-07
-1.0335e-07
-4.81862e-16
7.93049e-07
-4.01158e-16
7.55949e-07
-1.13605e-07
1.0335e-07
-2.95772e-08
7.55949e-07
-1.13605e-07
8.31091e-08
-3.0162e-08
7.93049e-07
5.76515e-08
-3.00179e-08
8.13965e-07
2.94397e-08
-2.96719e-08
8.25944e-07
4.51876e-16
-2.94397e-08
8.31579e-07
-2.94397e-08
-2.94397e-08
8.31579e-07
-5.76515e-08
-2.96719e-08
8.25944e-07
-8.31091e-08
-3.00179e-08
8.13965e-07
-1.0335e-07
-3.0162e-08
7.93049e-07
-2.95772e-08
7.55949e-07
-1.13605e-07
1.03387e-07
-5.71217e-08
7.41867e-07
-1.13003e-07
8.3478e-08
-5.86169e-08
7.82737e-07
5.80453e-08
-5.85894e-08
8.06238e-07
2.96719e-08
-5.80453e-08
8.19673e-07
2.76467e-16
-5.76515e-08
8.25944e-07
-2.96719e-08
-5.76515e-08
8.25944e-07
-5.80453e-08
-5.80453e-08
8.19673e-07
-8.3478e-08
-5.85894e-08
8.06238e-07
-1.03387e-07
-5.86169e-08
7.82737e-07
-5.71217e-08
7.41867e-07
-1.13003e-07
1.03049e-07
-8.01998e-08
7.12356e-07
-1.1147e-07
8.38516e-08
-8.31754e-08
7.60629e-07
5.85894e-08
-8.38516e-08
7.8957e-07
3.00179e-08
-8.3478e-08
8.06238e-07
-3.32324e-16
-8.31091e-08
8.13965e-07
-3.00179e-08
-8.31091e-08
8.13965e-07
-5.85894e-08
-8.3478e-08
8.06238e-07
-8.38516e-08
-8.38516e-08
7.8957e-07
-1.03049e-07
-8.31754e-08
7.60629e-07
-8.01998e-08
7.12356e-07
-1.1147e-07
1.00956e-07
-9.56912e-08
6.64793e-07
-1.07936e-07
8.31754e-08
-1.00956e-07
7.23287e-07
5.86169e-08
-1.03049e-07
7.60629e-07
3.0162e-08
-1.03387e-07
7.82737e-07
-1.08832e-15
-1.0335e-07
7.93049e-07
-3.0162e-08
-1.0335e-07
7.93049e-07
-5.86169e-08
-1.03387e-07
7.82737e-07
-8.31754e-08
-1.03049e-07
7.60629e-07
-1.00956e-07
-1.00956e-07
7.23287e-07
-9.56912e-08
6.64793e-07
-1.07936e-07
9.56912e-08
5.96472e-07
-1.00747e-07
-1.00747e-07
8.01998e-08
6.64793e-07
-1.07936e-07
5.71217e-08
7.12356e-07
-1.1147e-07
2.95772e-08
7.41867e-07
-1.13003e-07
-3.36064e-16
7.55949e-07
-1.13605e-07
-2.95772e-08
7.55949e-07
-1.13605e-07
-5.71217e-08
7.41867e-07
-1.13003e-07
-8.01998e-08
7.12356e-07
-1.1147e-07
-9.56912e-08
6.64793e-07
-1.07936e-07
5.96472e-07
-1.00747e-07
-1.00747e-07
4.54742e-08
4.54742e-08
5.95801e-07
-4.51389e-08
-4.51389e-08
4.02394e-08
5.19207e-08
6.6994e-07
-5.18327e-08
2.97389e-08
5.5955e-08
7.22664e-07
-5.57629e-08
1.57612e-08
5.81908e-08
7.55859e-07
-5.82051e-08
1.36332e-16
5.91878e-08
7.71824e-07
-5.93012e-08
-1.57612e-08
5.91878e-08
7.71824e-07
-5.93012e-08
-2.97389e-08
5.81908e-08
7.55859e-07
-5.82051e-08
-4.02394e-08
5.5955e-08
7.22664e-07
-5.57629e-08
-4.54742e-08
5.19207e-08
6.6994e-07
-5.18327e-08
4.54742e-08
5.95801e-07
-4.51389e-08
-4.51389e-08
5.19207e-08
4.02394e-08
6.6994e-07
-5.18327e-08
4.53134e-08
4.53134e-08
7.36502e-07
3.32679e-08
4.85184e-08
7.80111e-07
1.75487e-08
5.02466e-08
8.06401e-07
1.33276e-15
5.0998e-08
8.18787e-07
-1.75487e-08
5.0998e-08
8.18787e-07
-3.32679e-08
5.02466e-08
8.06401e-07
-4.53134e-08
4.85184e-08
7.80111e-07
-5.19207e-08
4.53134e-08
7.36502e-07
4.02394e-08
6.6994e-07
-5.18327e-08
5.5955e-08
2.97389e-08
7.22664e-07
-5.57629e-08
4.85184e-08
3.32679e-08
7.80111e-07
3.54396e-08
3.54396e-08
8.15728e-07
1.86407e-08
3.65942e-08
8.3669e-07
1.02594e-15
3.70865e-08
8.46518e-07
-1.86407e-08
3.70865e-08
8.46518e-07
-3.54396e-08
3.65942e-08
8.3669e-07
-4.85184e-08
3.54396e-08
8.15728e-07
-5.5955e-08
3.32679e-08
7.80111e-07
2.97389e-08
7.22664e-07
-5.57629e-08
5.81908e-08
1.57612e-08
7.55859e-07
-5.82051e-08
5.02466e-08
1.75487e-08
8.06401e-07
3.65942e-08
1.86407e-08
8.3669e-07
1.92199e-08
1.92199e-08
8.54422e-07
6.2588e-16
1.94645e-08
8.62786e-07
-1.92199e-08
1.94645e-08
8.62786e-07
-3.65942e-08
1.92199e-08
8.54422e-07
-5.02466e-08
1.86407e-08
8.3669e-07
-5.81908e-08
1.75487e-08
8.06401e-07
1.57612e-08
7.55859e-07
-5.82051e-08
5.91878e-08
4.84051e-17
7.71824e-07
-5.93012e-08
5.0998e-08
1.36833e-15
8.18787e-07
3.70865e-08
1.18395e-15
8.46518e-07
1.94645e-08
7.52932e-16
8.62786e-07
5.68125e-16
6.57085e-16
8.70508e-07
-1.94645e-08
6.38643e-16
8.70508e-07
-3.70865e-08
6.49126e-16
8.62786e-07
-5.0998e-08
2.90011e-16
8.46518e-07
-5.91878e-08
-8.91245e-16
8.18787e-07
-8.5129e-16
7.71824e-07
-5.93012e-08
5.91878e-08
-1.57612e-08
7.71824e-07
-5.93012e-08
5.0998e-08
-1.75487e-08
8.18787e-07
3.70865e-08
-1.86407e-08
8.46518e-07
1.94645e-08
-1.92199e-08
8.62786e-07
6.3236e-16
-1.94645e-08
8.70508e-07
-1.94645e-08
-1.94645e-08
8.70508e-07
-3.70865e-08
-1.92199e-08
8.62786e-07
-5.0998e-08
-1.86407e-08
8.46518e-07
-5.91878e-08
-1.75487e-08
8.18787e-07
-1.57612e-08
7.71824e-07
-5.93012e-08
5.81908e-08
-2.97389e-08
7.55859e-07
-5.82051e-08
5.02466e-08
-3.32679e-08
8.06401e-07
3.65942e-08
-3.54396e-08
8.3669e-07
1.92199e-08
-3.65942e-08
8.54422e-07
4.61621e-16
-3.70865e-08
8.62786e-07
-1.92199e-08
-3.70865e-08
8.62786e-07
-3.65942e-08
-3.65942e-08
8.54422e-07
-5.02466e-08
-3.54396e-08
8.3669e-07
-5.81908e-08
-3.32679e-08
8.06401e-07
-2.97389e-08
7.55859e-07
-5.82051e-08
5.5955e-08
-4.02394e-08
7.22664e-07
-5.57629e-08
4.85184e-08
-4.53134e-08
7.80111e-07
3.54396e-08
-4.85184e-08
8.15728e-07
1.86407e-08
-5.02466e-08
8.3669e-07
-1.89082e-16
-5.0998e-08
8.46518e-07
-1.86407e-08
-5.0998e-08
8.46518e-07
-3.54396e-08
-5.02466e-08
8.3669e-07
-4.85184e-08
-4.85184e-08
8.15728e-07
-5.5955e-08
-4.53134e-08
7.80111e-07
-4.02394e-08
7.22664e-07
-5.57629e-08
5.19207e-08
-4.54742e-08
6.6994e-07
-5.18327e-08
4.53134e-08
-5.19207e-08
7.36502e-07
3.32679e-08
-5.5955e-08
7.80111e-07
1.75487e-08
-5.81908e-08
8.06401e-07
-1.40146e-15
-5.91878e-08
8.18787e-07
-1.75487e-08
-5.91878e-08
8.18787e-07
-3.32679e-08
-5.81908e-08
8.06401e-07
-4.53134e-08
-5.5955e-08
7.80111e-07
-5.19207e-08
-5.19207e-08
7.36502e-07
-4.54742e-08
6.6994e-07
-5.18327e-08
4.54742e-08
5.95801e-07
-4.51389e-08
-4.51389e-08
4.02394e-08
6.6994e-07
-5.18327e-08
2.97389e-08
7.22664e-07
-5.57629e-08
1.57612e-08
7.55859e-07
-5.82051e-08
-6.97467e-16
7.71824e-07
-5.93012e-08
-1.57612e-08
7.71824e-07
-5.93012e-08
-2.97389e-08
7.55859e-07
-5.82051e-08
-4.02394e-08
7.22664e-07
-5.57629e-08
-4.54742e-08
6.6994e-07
-5.18327e-08
5.95801e-07
-4.51389e-08
-4.51389e-08
2.15567e-08
2.15567e-08
5.93426e-07
-2.0369e-08
-2.0369e-08
1.97108e-08
2.55744e-08
6.70196e-07
-2.39852e-08
1.49406e-08
2.84191e-08
7.25494e-07
-2.6479e-08
8.04225e-09
3.01927e-08
7.60677e-07
-2.81123e-08
4.98261e-16
3.10274e-08
7.77709e-07
-2.88699e-08
-8.04225e-09
3.10274e-08
7.77709e-07
-2.88699e-08
-1.49406e-08
3.01927e-08
7.60677e-07
-2.81123e-08
-1.97108e-08
2.84191e-08
7.25494e-07
-2.6479e-08
-2.15567e-08
2.55744e-08
6.70196e-07
-2.39852e-08
2.15567e-08
5.93426e-07
-2.0369e-08
-2.0369e-08
2.55744e-08
1.97108e-08
6.70196e-07
-2.39852e-08
2.33198e-08
2.33198e-08
7.41011e-07
1.76439e-08
2.58876e-08
7.88318e-07
9.47653e-09
2.74529e-08
8.17308e-07
1.07765e-15
2.81847e-08
8.31107e-07
-9.47653e-09
2.81847e-08
8.31107e-07
-1.76439e-08
2.74529e-08
8.17308e-07
-2.33198e-08
2.58876e-08
7.88318e-07
-2.55744e-08
2.33198e-08
7.41011e-07
1.97108e-08
6.70196e-07
-2.39852e-08
2.84191e-08
1.49406e-08
7.25494e-07
-2.6479e-08
2.58876e-08
1.76439e-08
7.88318e-07
1.95502e-08
1.95502e-08
8.28402e-07
1.04823e-08
2.06953e-08
8.52515e-07
8.23764e-16
2.12236e-08
8.63961e-07
-1.04823e-08
2.12236e-08
8.63961e-07
-1.95502e-08
2.06953e-08
8.52515e-07
-2.58876e-08
1.95502e-08
8.28402e-07
-2.84191e-08
1.76439e-08
7.88318e-07
1.49406e-08
7.25494e-07
-2.6479e-08
3.01927e-08
8.04225e-09
7.60677e-07
-2.81123e-08
2.74529e-08
9.47653e-09
8.17308e-07
2.06953e-08
1.04823e-08
8.52515e-07
1.10831e-08
1.10831e-08
8.73646e-07
5.37052e-16
1.13581e-08
8.83734e-07
-1.10831e-08
1.13581e-08
8.83734e-07
-2.06953e-08
1.10831e-08
8.73646e-07
-2.74529e-08
1.04823e-08
8.52515e-07
-3.01927e-08
9.47653e-09
8.17308e-07
8.04225e-09
7.60677e-07
-2.81123e-08
3.10274e-08
3.48815e-16
7.77709e-07
-2.88699e-08
2.81847e-08
1.25517e-15
8.31107e-07
2.12236e-08
1.26549e-15
8.63961e-07
1.13581e-08
9.30135e-16
8.83734e-07
5.58007e-16
8.491e-16
8.93224e-07
-1.13581e-08
9.29425e-16
8.93224e-07
-2.12236e-08
8.77261e-16
8.83734e-07
-2.81847e-08
5.44852e-16
8.63961e-07
-3.10274e-08
-3.50507e-16
8.31107e-07
-6.1237e-16
7.77709e-07
-2.88699e-08
3.10274e-08
-8.04225e-09
7.77709e-07
-2.88699e-08
2.81847e-08
-9.47653e-09
8.31107e-07
2.12236e-08
-1.04823e-08
8.63961e-07
1.13581e-08
-1.10831e-08
8.83734e-07
6.73653e-16
-1.13581e-08
8.93224e-07
-1.13581e-08
-1.13581e-08
8.93224e-07
-2.12236e-08
-1.10831e-08
8.83734e-07
-2.81847e-08
-1.04823e-08
8.63961e-07
-3.10274e-08
-9.47653e-09
8.31107e-07
-8.04226e-09
7.77709e-07
-2.88699e-08
3.01927e-08
-1.49406e-08
7.60677e-07
-2.81123e-08
2.74529e-08
-1.76439e-08
8.17308e-07
2.06953e-08
-1.95502e-08
8.52515e-07
1.10831e-08
-2.06953e-08
8.73646e-07
5.53357e-16
-2.12236e-08
8.83734e-07
-1.10831e-08
-2.12236e-08
8.83734e-07
-2.06953e-08
-2.06953e-08
8.73646e-07
-2.74529e-08
-1.95502e-08
8.52515e-07
-3.01927e-08
-1.76439e-08
8.17308e-07
-1.49406e-08
7.60677e-07
-2.81123e-08
2.84191e-08
-1.97108e-08
7.25494e-07
-2.6479e-08
2.58876e-08
-2.33198e-08
7.88318e-07
1.95502e-08
-2.58876e-08
8.28402e-07
1.04823e-08
-2.74529e-08
8.52515e-07
-5.06219e-17
-2.81847e-08
8.63961e-07
-1.04823e-08
-2.81847e-08
8.63961e-07
-1.95502e-08
-2.74529e-08
8.52515e-07
-2.58876e-08
-2.58876e-08
8.28402e-07
-2.84191e-08
-2.33198e-08
7.88318e-07
-1.97108e-08
7.25494e-07
-2.6479e-08
2.55744e-08
-2.15567e-08
6.70196e-07
-2.39852e-08
2.33198e-08
-2.55744e-08
7.41011e-07
1.76439e-08
-2.84191e-08
7.88318e-07
9.47653e-09
-3.01927e-08
8.17308e-07
-9.3442e-16
-3.10274e-08
8.31107e-07
-9.47653e-09
-3.10274e-08
8.31107e-07
-1.76439e-08
-3.01927e-08
8.17308e-07
-2.33198e-08
-2.84191e-08
7.88318e-07
-2.55744e-08
-2.55744e-08
7.41011e-07
-2.15567e-08
6.70196e-07
-2.39852e-08
2.15567e-08
5.93426e-07
-2.0369e-08
-2.0369e-08
1.97108e-08
6.70196e-07
-2.39852e-08
1.49406e-08
7.25494e-07
-2.6479e-08
8.04225e-09
7.60677e-07
-2.81123e-08
-4.41601e-16
7.77709e-07
-2.88699e-08
-8.04225e-09
7.77709e-07
-2.88699e-08
-1.49406e-08
7.60677e-07
-2.81123e-08
-1.97108e-08
7.25494e-07
-2.6479e-08
-2.15567e-08
6.70196e-07
-2.39852e-08
5.93426e-07
-2.0369e-08
-2.0369e-08
8.2566e-09
8.2566e-09
5.91357e-07
-7.22239e-09
-7.22239e-09
8.00258e-09
1.05454e-08
6.6895e-07
-9.04522e-09
6.31462e-09
1.2322e-08
7.25286e-07
-1.04256e-08
3.48108e-09
1.35179e-08
7.61385e-07
-1.13923e-08
3.40277e-16
1.41035e-08
7.78943e-07
-1.1857e-08
-3.48108e-09
1.41035e-08
7.78943e-07
-1.1857e-08
-6.31463e-09
1.35179e-08
7.61385e-07
-1.13923e-08
-8.00258e-09
1.2322e-08
7.25286e-07
-1.04256e-08
-8.2566e-09
1.05454e-08
6.6895e-07
-9.04521e-09
8.2566e-09
5.91357e-07
-7.22239e-09
-7.22239e-09
1.05454e-08
8.00258e-09
6.6895e-07
-9.04522e-09
1.02502e-08
1.02502e-08
7.41601e-07
8.08954e-09
1.19968e-08
7.90804e-07
4.45158e-09
1.3143e-08
8.21321e-07
1.10514e-15
1.37013e-08
8.3596e-07
-4.45157e-09
1.37013e-08
8.3596e-07
-8.08953e-09
1.3143e-08
8.21321e-07
-1.02502e-08
1.19968e-08
7.90804e-07
-1.05454e-08
1.02502e-08
7.41601e-07
8.00258e-09
6.6895e-07
-9.04521e-09
1.2322e-08
6.31462e-09
7.25286e-07
-1.04256e-08
1.19968e-08
8.08954e-09
7.90804e-07
9.45555e-09
9.45555e-09
8.33485e-07
5.19217e-09
1.03354e-08
8.59586e-07
9.53149e-16
1.07588e-08
8.72096e-07
-5.19217e-09
1.07588e-08
8.72096e-07
-9.45555e-09
1.03354e-08
8.59586e-07
-1.19968e-08
9.45555e-09
8.33485e-07
-1.2322e-08
8.08954e-09
7.90804e-07
6.31462e-09
7.25286e-07
-1.04256e-08
1.35179e-08
3.48108e-09
7.61385e-07
-1.13923e-08
1.3143e-08
4.45158e-09
8.21321e-07
1.03354e-08
5.19217e-09
8.59586e-07
5.66481e-09
5.66481e-09
8.82987e-07
6.854e-16
5.89042e-09
8.94268e-07
-5.66481e-09
5.89042e-09
8.94268e-07
-1.03354e-08
5.66481e-09
8.82987e-07
-1.3143e-08
5.19217e-09
8.59586e-07
-1.35179e-08
4.45157e-09
8.21321e-07
3.48108e-09
7.61385e-07
-1.13923e-08
1.41035e-08
1.39888e-16
7.78943e-07
-1.1857e-08
1.37013e-08
9.78803e-16
8.3596e-07
1.07588e-08
9.23159e-16
8.72096e-07
5.89042e-09
8.13117e-16
8.94268e-07
6.59829e-16
8.089e-16
9.05005e-07
-5.89042e-09
8.55055e-16
9.05005e-07
-1.07588e-08
7.23418e-16
8.94268e-07
-1.37013e-08
4.2664e-16
8.72096e-07
-1.41035e-08
-1.50549e-16
8.3596e-07
-1.51325e-16
7.78943e-07
-1.1857e-08
1.41035e-08
-3.48108e-09
7.78943e-07
-1.1857e-08
1.37013e-08
-4.45157e-09
8.3596e-07
1.07588e-08
-5.19217e-09
8.72096e-07
5.89042e-09
-5.66481e-09
8.94268e-07
6.91375e-16
-5.89041e-09
9.05005e-07
-5.89042e-09
-5.89041e-09
9.05005e-07
-1.07588e-08
-5.66481e-09
8.94268e-07
-1.37013e-08
-5.19217e-09
8.72096e-07
-1.41035e-08
-4.45157e-09
8.3596e-07
-3.48108e-09
7.78943e-07
-1.1857e-08
1.35179e-08
-6.31463e-09
7.61385e-07
-1.13923e-08
1.3143e-08
-8.08954e-09
8.21321e-07
1.03354e-08
-9.45555e-09
8.59586e-07
5.66481e-09
-1.03354e-08
8.82987e-07
5.4155e-16
-1.07588e-08
8.94268e-07
-5.66481e-09
-1.07588e-08
8.94268e-07
-1.03354e-08
-1.03354e-08
8.82987e-07
-1.3143e-08
-9.45555e-09
8.59586e-07
-1.35179e-08
-8.08954e-09
8.21321e-07
-6.31463e-09
7.61385e-07
-1.13923e-08
1.2322e-08
-8.00258e-09
7.25286e-07
-1.04256e-08
1.19968e-08
-1.02502e-08
7.90804e-07
9.45555e-09
-1.19968e-08
8.33485e-07
5.19217e-09
-1.3143e-08
8.59586e-07
3.22489e-17
-1.37013e-08
8.72096e-07
-5.19217e-09
-1.37013e-08
8.72096e-07
-9.45555e-09
-1.3143e-08
8.59586e-07
-1.19968e-08
-1.19968e-08
8.33485e-07
-1.2322e-08
-1.02502e-08
7.90804e-07
-8.00258e-09
7.25286e-07
-1.04256e-08
1.05454e-08
-8.2566e-09
6.6895e-07
-9.04521e-09
1.02502e-08
-1.05454e-08
7.41601e-07
8.08954e-09
-1.2322e-08
7.90804e-07
4.45157e-09
-1.35179e-08
8.21321e-07
-6.37683e-16
-1.41035e-08
8.3596e-07
-4.45157e-09
-1.41035e-08
8.3596e-07
-8.08954e-09
-1.35179e-08
8.21321e-07
-1.02502e-08
-1.2322e-08
7.90804e-07
-1.05454e-08
-1.05454e-08
7.41601e-07
-8.2566e-09
6.6895e-07
-9.04522e-09
8.2566e-09
5.91357e-07
-7.22239e-09
-7.22239e-09
8.00258e-09
6.6895e-07
-9.04521e-09
6.31462e-09
7.25286e-07
-1.04256e-08
3.48108e-09
7.61385e-07
-1.13923e-08
-9.51924e-17
7.78943e-07
-1.1857e-08
-3.48108e-09
7.78943e-07
-1.1857e-08
-6.31463e-09
7.61385e-07
-1.13923e-08
-8.00258e-09
7.25286e-07
-1.04256e-08
-8.2566e-09
6.6895e-07
-9.04521e-09
5.91357e-07
-7.22239e-09
-7.22239e-09
2.59429e-09
2.59429e-09
5.9028e-07
-2.05564e-09
-2.05564e-09
2.69929e-09
3.63237e-09
6.68002e-07
-2.78928e-09
2.23041e-09
4.50801e-09
7.24639e-07
-3.39223e-09
1.26296e-09
5.13706e-09
7.61061e-07
-3.8456e-09
5.35288e-16
5.4547e-09
7.78821e-07
-4.06941e-09
-1.26296e-09
5.4547e-09
7.78821e-07
-4.06941e-09
-2.23041e-09
5.13706e-09
7.61061e-07
-3.8456e-09
-2.69929e-09
4.50801e-09
7.24639e-07
-3.39223e-09
-2.59429e-09
3.63237e-09
6.68002e-07
-2.78928e-09
2.59429e-09
5.9028e-07
-2.05564e-09
-2.05564e-09
3.63237e-09
2.69928e-09
6.68002e-07
-2.78928e-09
3.8044e-09
3.8044e-09
7.41257e-07
3.14759e-09
4.73377e-09
7.91235e-07
1.77841e-09
5.38175e-09
8.22445e-07
8.86559e-16
5.70732e-09
8.37486e-07
-1.77841e-09
5.70732e-09
8.37486e-07
-3.14759e-09
5.38175e-09
8.22445e-07
-3.8044e-09
4.73376e-09
7.91235e-07
-3.63237e-09
3.8044e-09
7.41257e-07
2.69929e-09
6.68002e-07
-2.78928e-09
4.50801e-09
2.23041e-09
7.24639e-07
-3.39223e-09
4.73376e-09
3.14759e-09
7.91235e-07
3.90812e-09
3.90812e-09
8.35136e-07
2.2008e-09
4.42688e-09
8.62248e-07
8.19524e-16
4.68449e-09
8.75319e-07
-2.2008e-09
4.68449e-09
8.75319e-07
-3.90812e-09
4.42688e-09
8.62248e-07
-4.73376e-09
3.90812e-09
8.35136e-07
-4.50801e-09
3.14759e-09
7.91235e-07
2.23041e-09
7.24639e-07
-3.39223e-09
5.13706e-09
1.26296e-09
7.61061e-07
-3.8456e-09
5.38175e-09
1.77841e-09
8.22445e-07
4.42688e-09
2.2008e-09
8.62248e-07
2.48557e-09
2.48557e-09
8.8687e-07
6.91942e-16
2.62588e-09
8.98812e-07
-2.48557e-09
2.62588e-09
8.98812e-07
-4.42688e-09
2.48557e-09
8.8687e-07
-5.38175e-09
2.2008e-09
8.62248e-07
-5.13706e-09
1.77841e-09
8.22445e-07
1.26296e-09
7.61061e-07
-3.8456e-09
5.4547e-09
1.10566e-16
7.78821e-07
-4.06941e-09
5.70732e-09
4.86231e-16
8.37486e-07
4.68449e-09
8.60783e-16
8.75319e-07
2.62588e-09
8.84162e-16
8.98812e-07
7.07794e-16
8.8244e-16
9.10257e-07
-2.62588e-09
8.46992e-16
9.10257e-07
-4.68448e-09
6.14785e-16
8.98812e-07
-5.70731e-09
3.58885e-16
8.75319e-07
-5.4547e-09
1.52956e-16
8.37486e-07
1.04845e-16
7.78821e-07
-4.06941e-09
5.4547e-09
-1.26296e-09
7.78821e-07
-4.06941e-09
5.70732e-09
-1.77841e-09
8.37486e-07
4.68449e-09
-2.2008e-09
8.75319e-07
2.62588e-09
-2.48557e-09
8.98812e-07
6.06324e-16
-2.62588e-09
9.10257e-07
-2.62588e-09
-2.62588e-09
9.10257e-07
-4.68448e-09
-2.48557e-09
8.98812e-07
-5.70731e-09
-2.2008e-09
8.75319e-07
-5.4547e-09
-1.77841e-09
8.37486e-07
-1.26296e-09
7.78821e-07
-4.06941e-09
5.13706e-09
-2.23041e-09
7.61061e-07
-3.8456e-09
5.38175e-09
-3.14759e-09
8.22445e-07
4.42688e-09
-3.90812e-09
8.62248e-07
2.48557e-09
-4.42688e-09
8.8687e-07
3.58433e-16
-4.68448e-09
8.98812e-07
-2.48557e-09
-4.68448e-09
8.98812e-07
-4.42688e-09
-4.42688e-09
8.8687e-07
-5.38175e-09
-3.90812e-09
8.62248e-07
-5.13706e-09
-3.14759e-09
8.22445e-07
-2.23041e-09
7.61061e-07
-3.8456e-09
4.50801e-09
-2.69929e-09
7.24639e-07
-3.39223e-09
4.73376e-09
-3.8044e-09
7.91235e-07
3.90812e-09
-4.73377e-09
8.35136e-07
2.2008e-09
-5.38175e-09
8.62248e-07
-5.7026e-17
-5.70731e-09
8.75319e-07
-2.2008e-09
-5.70731e-09
8.75319e-07
-3.90812e-09
-5.38175e-09
8.62248e-07
-4.73376e-09
-4.73376e-09
8.35136e-07
-4.50801e-09
-3.8044e-09
7.91235e-07
-2.69929e-09
7.24639e-07
-3.39223e-09
3.63237e-09
-2.59429e-09
6.68002e-07
-2.78928e-09
3.8044e-09
-3.63237e-09
7.41257e-07
3.14759e-09
-4.50801e-09
7.91235e-07
1.77841e-09
-5.13706e-09
8.22445e-07
-4.37846e-16
-5.4547e-09
8.37486e-07
-1.77841e-09
-5.4547e-09
8.37486e-07
-3.14759e-09
-5.13706e-09
8.22445e-07
-3.8044e-09
-4.50801e-09
7.91235e-07
-3.63237e-09
-3.63237e-09
7.41257e-07
-2.59429e-09
6.68002e-07
-2.78928e-09
2.59429e-09
5.9028e-07
-2.05564e-09
-2.05564e-09
2.69929e-09
6.68002e-07
-2.78929e-09
2.23041e-09
7.24639e-07
-3.39223e-09
1.26296e-09
7.61061e-07
-3.8456e-09
-1.52684e-16
7.78821e-07
-4.06941e-09
-1.26296e-09
7.78821e-07
-4.06941e-09
-2.23041e-09
7.61061e-07
-3.8456e-09
-2.69929e-09
7.24639e-07
-3.39223e-09
-2.59429e-09
6.68002e-07
-2.78928e-09
5.9028e-07
-2.05564e-09
-2.05564e-09
6.82041e-10
6.8204e-10
5.89816e-07
-4.5024e-10
-4.5024e-10
7.86812e-10
1.08545e-09
6.67518e-07
-7.06529e-10
6.90998e-10
1.4485e-09
7.24221e-07
-9.34544e-10
4.04302e-10
1.7225e-09
7.60739e-07
-1.11389e-09
3.02226e-16
1.86387e-09
7.78566e-07
-1.20435e-09
-4.04302e-10
1.86387e-09
7.78566e-07
-1.20435e-09
-6.90997e-10
1.7225e-09
7.60739e-07
-1.11389e-09
-7.86811e-10
1.4485e-09
7.24221e-07
-9.34543e-10
-6.8204e-10
1.08545e-09
6.67518e-07
-7.06529e-10
6.82041e-10
5.89816e-07
-4.50239e-10
-4.5024e-10
1.08545e-09
7.86812e-10
6.67518e-07
-7.06529e-10
1.24666e-09
1.24666e-09
7.40935e-07
1.08731e-09
1.65646e-09
7.91187e-07
6.31784e-10
1.9555e-09
8.22668e-07
6.36215e-16
2.10907e-09
8.37873e-07
-6.31783e-10
2.10907e-09
8.37873e-07
-1.08731e-09
1.9555e-09
8.22668e-07
-1.24666e-09
1.65645e-09
7.91187e-07
-1.08545e-09
1.24666e-09
7.40935e-07
7.86812e-10
6.67518e-07
-7.06528e-10
1.4485e-09
6.90998e-10
7.24221e-07
-9.34544e-10
1.65646e-09
1.08731e-09
7.91187e-07
1.43506e-09
1.43506e-09
8.35579e-07
8.287e-10
1.68283e-09
8.63127e-07
5.80991e-16
1.80862e-09
8.76449e-07
-8.28699e-10
1.80862e-09
8.76449e-07
-1.43506e-09
1.68283e-09
8.63127e-07
-1.65646e-09
1.43506e-09
8.35579e-07
-1.4485e-09
1.08731e-09
7.91187e-07
6.90998e-10
7.24221e-07
-9.34543e-10
1.7225e-09
4.04303e-10
7.60739e-07
-1.11389e-09
1.9555e-09
6.31784e-10
8.22668e-07
1.68283e-09
8.287e-10
8.63127e-07
9.67226e-10
9.67226e-10
8.88301e-07
5.26312e-16
1.03703e-09
9.0055e-07
-9.67225e-10
1.03703e-09
9.0055e-07
-1.68283e-09
9.67226e-10
8.88301e-07
-1.9555e-09
8.287e-10
8.63127e-07
-1.7225e-09
6.31784e-10
8.22668e-07