/*--------------------------------*- C++ -*----------------------------------*\
| =========                 |                                                 |
| \\      /  F ield         | OpenFOAM: The Open Source CFD Toolbox           |
|  \\    /   O peration     | Version:  2412                                  |
|   \\  /    A nd           | Website:  www.openfoam.com                      |
|    \\/     M anipulation  |                                                 |
\*---------------------------------------------------------------------------*/
FoamFile
{
    version     2.0;
    format      ascii;
    arch        "LSB;label=32;scalar=64";
    class       volVectorField;
    location    "0.4";
    object      U;
}
// * * * * * * * * * * * * * * * * * * * * * * * * * * * * * * * * * * * * * //

dimensions      [0 1 -1 0 0 0 0];

internalField   nonuniform List<vector> 
15000
(
(0.000348916 0.000348916 0.0102349)
(0.000235057 0.000294624 0.0102099)
(0.000161656 0.000285917 0.0101926)
(9.4909e-05 0.000274287 0.0101816)
(3.12211e-05 0.000269012 0.0101763)
(-3.12212e-05 0.000269012 0.0101763)
(-9.4909e-05 0.000274287 0.0101816)
(-0.000161656 0.000285917 0.0101926)
(-0.000235057 0.000294624 0.0102099)
(-0.000348916 0.000348916 0.0102349)
(0.000294624 0.000235057 0.0102099)
(0.000217244 0.000217244 0.0101854)
(0.000151934 0.00020744 0.010168)
(8.96769e-05 0.000201088 0.010157)
(2.95948e-05 0.000198076 0.0101517)
(-2.95947e-05 0.000198076 0.0101517)
(-8.96769e-05 0.000201088 0.010157)
(-0.000151934 0.00020744 0.010168)
(-0.000217243 0.000217244 0.0101854)
(-0.000294624 0.000235057 0.0102099)
(0.000285917 0.000161656 0.0101926)
(0.00020744 0.000151934 0.010168)
(0.000144308 0.000144308 0.010151)
(8.48347e-05 0.000138991 0.0101404)
(2.79754e-05 0.000136388 0.0101354)
(-2.79753e-05 0.000136388 0.0101354)
(-8.48348e-05 0.000138991 0.0101404)
(-0.000144308 0.000144308 0.010151)
(-0.00020744 0.000151934 0.010168)
(-0.000285917 0.000161656 0.0101926)
(0.000274287 9.49089e-05 0.0101816)
(0.000201088 8.96769e-05 0.010157)
(0.000138991 8.48347e-05 0.0101404)
(8.15154e-05 8.15155e-05 0.0101303)
(2.68613e-05 7.98741e-05 0.0101255)
(-2.68612e-05 7.98741e-05 0.0101255)
(-8.15155e-05 8.15155e-05 0.0101303)
(-0.000138991 8.48347e-05 0.0101404)
(-0.000201088 8.9677e-05 0.010157)
(-0.000274286 9.49089e-05 0.0101816)
(0.000269012 3.12212e-05 0.0101763)
(0.000198076 2.95948e-05 0.0101517)
(0.000136388 2.79753e-05 0.0101354)
(7.98741e-05 2.68612e-05 0.0101255)
(2.6307e-05 2.6307e-05 0.0101208)
(-2.6307e-05 2.6307e-05 0.0101208)
(-7.98741e-05 2.68613e-05 0.0101255)
(-0.000136388 2.79753e-05 0.0101354)
(-0.000198076 2.95947e-05 0.0101517)
(-0.000269012 3.12211e-05 0.0101763)
(0.000269012 -3.12211e-05 0.0101763)
(0.000198076 -2.95946e-05 0.0101517)
(0.000136388 -2.79753e-05 0.0101354)
(7.98741e-05 -2.68613e-05 0.0101255)
(2.6307e-05 -2.6307e-05 0.0101208)
(-2.6307e-05 -2.6307e-05 0.0101208)
(-7.98741e-05 -2.68612e-05 0.0101255)
(-0.000136388 -2.79753e-05 0.0101354)
(-0.000198076 -2.95947e-05 0.0101517)
(-0.000269012 -3.12211e-05 0.0101763)
(0.000274287 -9.4909e-05 0.0101816)
(0.000201088 -8.9677e-05 0.010157)
(0.000138991 -8.48347e-05 0.0101404)
(8.15154e-05 -8.15154e-05 0.0101303)
(2.68613e-05 -7.98741e-05 0.0101255)
(-2.68612e-05 -7.98741e-05 0.0101255)
(-8.15155e-05 -8.15155e-05 0.0101303)
(-0.000138991 -8.48347e-05 0.0101404)
(-0.000201088 -8.96768e-05 0.010157)
(-0.000274286 -9.49089e-05 0.0101816)
(0.000285917 -0.000161656 0.0101926)
(0.00020744 -0.000151934 0.010168)
(0.000144308 -0.000144308 0.010151)
(8.48347e-05 -0.000138991 0.0101404)
(2.79753e-05 -0.000136388 0.0101354)
(-2.79753e-05 -0.000136388 0.0101354)
(-8.48347e-05 -0.000138991 0.0101404)
(-0.000144308 -0.000144308 0.010151)
(-0.00020744 -0.000151934 0.010168)
(-0.000285917 -0.000161656 0.0101926)
(0.000294624 -0.000235057 0.0102099)
(0.000217244 -0.000217243 0.0101854)
(0.000151934 -0.00020744 0.010168)
(8.9677e-05 -0.000201088 0.010157)
(2.95947e-05 -0.000198076 0.0101517)
(-2.95947e-05 -0.000198076 0.0101517)
(-8.96768e-05 -0.000201088 0.010157)
(-0.000151934 -0.00020744 0.010168)
(-0.000217244 -0.000217244 0.0101854)
(-0.000294624 -0.000235057 0.0102099)
(0.000348916 -0.000348916 0.0102349)
(0.000235057 -0.000294624 0.0102099)
(0.000161656 -0.000285917 0.0101926)
(9.49089e-05 -0.000274286 0.0101816)
(3.12212e-05 -0.000269012 0.0101763)
(-3.12211e-05 -0.000269012 0.0101763)
(-9.49089e-05 -0.000274286 0.0101816)
(-0.000161656 -0.000285917 0.0101926)
(-0.000235057 -0.000294624 0.0102099)
(-0.000348916 -0.000348916 0.0102349)
(0.000125641 0.000125641 0.0105347)
(9.3735e-05 0.000121435 0.0104981)
(6.95993e-05 0.000127775 0.0104719)
(4.2904e-05 0.000129407 0.0104548)
(1.44344e-05 0.000130384 0.0104464)
(-1.44342e-05 0.000130384 0.0104464)
(-4.29038e-05 0.000129407 0.0104548)
(-6.95994e-05 0.000127775 0.0104719)
(-9.37351e-05 0.000121435 0.0104981)
(-0.000125641 0.00012564 0.0105347)
(0.000121435 9.3735e-05 0.0104981)
(9.91275e-05 9.91276e-05 0.0104601)
(7.44911e-05 0.000103705 0.0104323)
(4.60623e-05 0.000106407 0.0104142)
(1.55665e-05 0.000107747 0.0104053)
(-1.55665e-05 0.000107747 0.0104053)
(-4.60622e-05 0.000106407 0.0104142)
(-7.4491e-05 0.000103704 0.0104323)
(-9.91274e-05 9.91275e-05 0.0104601)
(-0.000121435 9.3735e-05 0.0104981)
(0.000127775 6.95992e-05 0.0104719)
(0.000103705 7.44911e-05 0.0104323)
(7.76089e-05 7.76089e-05 0.0104038)
(4.78474e-05 7.93522e-05 0.0103855)
(1.61492e-05 8.01432e-05 0.0103766)
(-1.61492e-05 8.01431e-05 0.0103766)
(-4.78474e-05 7.93522e-05 0.0103855)
(-7.76089e-05 7.76089e-05 0.0104038)
(-0.000103705 7.44911e-05 0.0104323)
(-0.000127775 6.95992e-05 0.0104719)
(0.000129407 4.2904e-05 0.0104548)
(0.000106407 4.60622e-05 0.0104142)
(7.93522e-05 4.78474e-05 0.0103855)
(4.88049e-05 4.8805e-05 0.0103673)
(1.64548e-05 4.92252e-05 0.0103584)
(-1.64549e-05 4.92252e-05 0.0103584)
(-4.8805e-05 4.88049e-05 0.0103673)
(-7.93522e-05 4.78474e-05 0.0103855)
(-0.000106407 4.60622e-05 0.0104142)
(-0.000129407 4.29038e-05 0.0104548)
(0.000130384 1.44344e-05 0.0104464)
(0.000107747 1.55665e-05 0.0104053)
(8.01431e-05 1.61491e-05 0.0103766)
(4.92252e-05 1.64548e-05 0.0103584)
(1.65863e-05 1.65863e-05 0.0103496)
(-1.65864e-05 1.65863e-05 0.0103496)
(-4.92252e-05 1.64548e-05 0.0103584)
(-8.01431e-05 1.61491e-05 0.0103766)
(-0.000107747 1.55665e-05 0.0104053)
(-0.000130384 1.44343e-05 0.0104464)
(0.000130384 -1.44342e-05 0.0104464)
(0.000107747 -1.55665e-05 0.0104053)
(8.01431e-05 -1.61492e-05 0.0103766)
(4.92252e-05 -1.64549e-05 0.0103584)
(1.65863e-05 -1.65864e-05 0.0103496)
(-1.65864e-05 -1.65864e-05 0.0103496)
(-4.92252e-05 -1.64549e-05 0.0103584)
(-8.01431e-05 -1.61491e-05 0.0103766)
(-0.000107747 -1.55665e-05 0.0104053)
(-0.000130384 -1.44343e-05 0.0104464)
(0.000129407 -4.29038e-05 0.0104548)
(0.000106407 -4.60622e-05 0.0104142)
(7.93522e-05 -4.78474e-05 0.0103855)
(4.88049e-05 -4.8805e-05 0.0103673)
(1.64548e-05 -4.92252e-05 0.0103584)
(-1.64549e-05 -4.92252e-05 0.0103584)
(-4.88049e-05 -4.8805e-05 0.0103673)
(-7.93522e-05 -4.78474e-05 0.0103855)
(-0.000106407 -4.60622e-05 0.0104142)
(-0.000129407 -4.29037e-05 0.0104548)
(0.000127775 -6.95993e-05 0.0104719)
(0.000103705 -7.44911e-05 0.0104323)
(7.76088e-05 -7.76089e-05 0.0104038)
(4.78474e-05 -7.93521e-05 0.0103855)
(1.61491e-05 -8.01431e-05 0.0103766)
(-1.61491e-05 -8.01431e-05 0.0103766)
(-4.78474e-05 -7.93522e-05 0.0103855)
(-7.76089e-05 -7.76089e-05 0.0104038)
(-0.000103704 -7.4491e-05 0.0104323)
(-0.000127775 -6.95988e-05 0.0104719)
(0.000121435 -9.37352e-05 0.0104981)
(9.91275e-05 -9.91274e-05 0.0104601)
(7.44911e-05 -0.000103705 0.0104323)
(4.60622e-05 -0.000106407 0.0104142)
(1.55665e-05 -0.000107747 0.0104053)
(-1.55665e-05 -0.000107747 0.0104053)
(-4.60623e-05 -0.000106407 0.0104142)
(-7.4491e-05 -0.000103704 0.0104323)
(-9.9127e-05 -9.9127e-05 0.0104601)
(-0.000121434 -9.37348e-05 0.0104981)
(0.000125641 -0.000125641 0.0105347)
(9.37351e-05 -0.000121435 0.0104981)
(6.95991e-05 -0.000127775 0.0104719)
(4.29038e-05 -0.000129407 0.0104548)
(1.44343e-05 -0.000130384 0.0104464)
(-1.44343e-05 -0.000130384 0.0104464)
(-4.29037e-05 -0.000129407 0.0104548)
(-6.95989e-05 -0.000127775 0.0104719)
(-9.37349e-05 -0.000121434 0.0104981)
(-0.000125641 -0.000125641 0.0105347)
(4.39233e-05 4.39233e-05 0.0105527)
(3.41082e-05 4.47897e-05 0.0105401)
(2.62085e-05 4.8708e-05 0.0105303)
(1.6462e-05 5.05978e-05 0.0105234)
(5.59146e-06 5.16267e-05 0.0105199)
(-5.59134e-06 5.16267e-05 0.0105199)
(-1.64619e-05 5.05978e-05 0.0105234)
(-2.62084e-05 4.87079e-05 0.0105303)
(-3.41083e-05 4.47896e-05 0.0105401)
(-4.39234e-05 4.39232e-05 0.0105527)
(4.47897e-05 3.41082e-05 0.0105401)
(3.83631e-05 3.83631e-05 0.0105249)
(2.99439e-05 4.19578e-05 0.0105126)
(1.89671e-05 4.43493e-05 0.0105041)
(6.48839e-06 4.55786e-05 0.0104998)
(-6.4884e-06 4.55786e-05 0.0104998)
(-1.89672e-05 4.43493e-05 0.0105041)
(-2.99441e-05 4.19577e-05 0.0105126)
(-3.83629e-05 3.83629e-05 0.0105249)
(-4.47896e-05 3.41082e-05 0.0105401)
(4.8708e-05 2.62085e-05 0.0105303)
(4.19578e-05 2.9944e-05 0.0105126)
(3.27591e-05 3.27592e-05 0.0104987)
(2.07377e-05 3.45952e-05 0.010489)
(7.09177e-06 3.55052e-05 0.0104841)
(-7.09175e-06 3.55052e-05 0.0104841)
(-2.07377e-05 3.45952e-05 0.010489)
(-3.27591e-05 3.27593e-05 0.0104987)
(-4.19579e-05 2.99441e-05 0.0105126)
(-4.8708e-05 2.62085e-05 0.0105303)
(5.05979e-05 1.6462e-05 0.0105234)
(4.43493e-05 1.89671e-05 0.0105041)
(3.45951e-05 2.07377e-05 0.010489)
(2.18895e-05 2.18895e-05 0.0104787)
(7.4842e-06 2.24586e-05 0.0104734)
(-7.48421e-06 2.24586e-05 0.0104734)
(-2.18895e-05 2.18895e-05 0.0104787)
(-3.45951e-05 2.07377e-05 0.010489)
(-4.43493e-05 1.89671e-05 0.0105041)
(-5.05978e-05 1.6462e-05 0.0105234)
(5.16267e-05 5.59146e-06 0.0105199)
(4.55786e-05 6.48836e-06 0.0104998)
(3.55051e-05 7.09177e-06 0.0104841)
(2.24586e-05 7.4842e-06 0.0104734)
(7.67734e-06 7.67734e-06 0.010468)
(-7.67735e-06 7.67735e-06 0.010468)
(-2.24586e-05 7.4842e-06 0.0104734)
(-3.55051e-05 7.09177e-06 0.0104841)
(-4.55786e-05 6.48837e-06 0.0104998)
(-5.16267e-05 5.59146e-06 0.0105199)
(5.16267e-05 -5.59131e-06 0.0105199)
(4.55786e-05 -6.48843e-06 0.0104998)
(3.55051e-05 -7.09176e-06 0.0104841)
(2.24586e-05 -7.4842e-06 0.0104734)
(7.67734e-06 -7.67735e-06 0.010468)
(-7.67735e-06 -7.67734e-06 0.010468)
(-2.24586e-05 -7.4842e-06 0.0104734)
(-3.55051e-05 -7.09175e-06 0.0104841)
(-4.55786e-05 -6.48841e-06 0.0104998)
(-5.16266e-05 -5.59134e-06 0.0105199)
(5.05978e-05 -1.64619e-05 0.0105234)
(4.43492e-05 -1.89672e-05 0.0105041)
(3.45952e-05 -2.07377e-05 0.010489)
(2.18895e-05 -2.18895e-05 0.0104787)
(7.4842e-06 -2.24586e-05 0.0104734)
(-7.4842e-06 -2.24586e-05 0.0104734)
(-2.18895e-05 -2.18895e-05 0.0104787)
(-3.45952e-05 -2.07377e-05 0.010489)
(-4.43492e-05 -1.89672e-05 0.0105041)
(-5.05977e-05 -1.64619e-05 0.0105234)
(4.87079e-05 -2.62085e-05 0.0105303)
(4.19576e-05 -2.99441e-05 0.0105126)
(3.27593e-05 -3.27592e-05 0.0104987)
(2.07377e-05 -3.45951e-05 0.010489)
(7.09176e-06 -3.55051e-05 0.0104841)
(-7.09175e-06 -3.55051e-05 0.0104841)
(-2.07377e-05 -3.45952e-05 0.010489)
(-3.27593e-05 -3.27593e-05 0.0104987)
(-4.19577e-05 -2.99441e-05 0.0105126)
(-4.87078e-05 -2.62083e-05 0.0105303)
(4.47896e-05 -3.41084e-05 0.0105401)
(3.83629e-05 -3.83628e-05 0.0105249)
(2.99442e-05 -4.19578e-05 0.0105126)
(1.89671e-05 -4.43493e-05 0.0105041)
(6.48835e-06 -4.55786e-05 0.0104998)
(-6.48842e-06 -4.55786e-05 0.0104998)
(-1.89672e-05 -4.43493e-05 0.0105041)
(-2.99441e-05 -4.19577e-05 0.0105126)
(-3.83626e-05 -3.83626e-05 0.0105249)
(-4.47894e-05 -3.41082e-05 0.0105401)
(4.39233e-05 -4.39235e-05 0.0105527)
(3.41082e-05 -4.47896e-05 0.0105401)
(2.62084e-05 -4.87079e-05 0.0105303)
(1.6462e-05 -5.05978e-05 0.0105234)
(5.59145e-06 -5.16267e-05 0.0105199)
(-5.59135e-06 -5.16266e-05 0.0105199)
(-1.64619e-05 -5.05977e-05 0.0105234)
(-2.62082e-05 -4.87078e-05 0.0105303)
(-3.41082e-05 -4.47895e-05 0.0105401)
(-4.39234e-05 -4.39235e-05 0.0105527)
(1.56127e-05 1.56128e-05 0.010554)
(1.24037e-05 1.6453e-05 0.0105496)
(9.72847e-06 1.82381e-05 0.010546)
(6.17717e-06 1.92247e-05 0.0105434)
(2.1108e-06 1.97549e-05 0.010542)
(-2.11074e-06 1.97549e-05 0.010542)
(-6.177e-06 1.92247e-05 0.0105434)
(-9.72826e-06 1.8238e-05 0.010546)
(-1.24037e-05 1.64528e-05 0.0105496)
(-1.56129e-05 1.56126e-05 0.010554)
(1.6453e-05 1.24037e-05 0.0105496)
(1.44726e-05 1.44727e-05 0.0105439)
(1.15544e-05 1.62527e-05 0.010539)
(7.42414e-06 1.74864e-05 0.0105355)
(2.55784e-06 1.81294e-05 0.0105337)
(-2.55784e-06 1.81294e-05 0.0105337)
(-7.42421e-06 1.74864e-05 0.0105355)
(-1.15545e-05 1.62525e-05 0.010539)
(-1.44725e-05 1.44724e-05 0.0105439)
(-1.64528e-05 1.24036e-05 0.0105496)
(1.82381e-05 9.72839e-06 0.010546)
(1.62526e-05 1.15545e-05 0.010539)
(1.30159e-05 1.3016e-05 0.0105332)
(8.37245e-06 1.40159e-05 0.010529)
(2.88638e-06 1.4526e-05 0.0105268)
(-2.88634e-06 1.4526e-05 0.0105268)
(-8.37243e-06 1.40159e-05 0.010529)
(-1.30159e-05 1.30161e-05 0.0105332)
(-1.62527e-05 1.15546e-05 0.010539)
(-1.82381e-05 9.72843e-06 0.010546)
(1.92247e-05 6.17714e-06 0.0105434)
(1.74864e-05 7.42413e-06 0.0105355)
(1.40159e-05 8.37246e-06 0.010529)
(9.02554e-06 9.02557e-06 0.0105243)
(3.11316e-06 9.35877e-06 0.0105218)
(-3.11313e-06 9.35877e-06 0.0105218)
(-9.02553e-06 9.02556e-06 0.0105243)
(-1.40159e-05 8.37245e-06 0.010529)
(-1.74864e-05 7.42412e-06 0.0105355)
(-1.92247e-05 6.17715e-06 0.0105434)
(1.97549e-05 2.11081e-06 0.010542)
(1.81294e-05 2.55781e-06 0.0105337)
(1.4526e-05 2.88637e-06 0.0105268)
(9.35876e-06 3.11316e-06 0.0105218)
(3.22863e-06 3.22863e-06 0.0105193)
(-3.2286e-06 3.22863e-06 0.0105193)
(-9.35874e-06 3.11316e-06 0.0105218)
(-1.4526e-05 2.88637e-06 0.0105268)
(-1.81294e-05 2.55783e-06 0.0105337)
(-1.97549e-05 2.11085e-06 0.010542)
(1.97549e-05 -2.11075e-06 0.010542)
(1.81294e-05 -2.55786e-06 0.0105337)
(1.4526e-05 -2.88634e-06 0.0105268)
(9.35876e-06 -3.11313e-06 0.0105218)
(3.22862e-06 -3.22859e-06 0.0105193)
(-3.2286e-06 -3.2286e-06 0.0105193)
(-9.35875e-06 -3.11314e-06 0.0105218)
(-1.4526e-05 -2.88634e-06 0.0105268)
(-1.81294e-05 -2.55786e-06 0.0105337)
(-1.97548e-05 -2.11073e-06 0.010542)
(1.92247e-05 -6.17702e-06 0.0105434)
(1.74864e-05 -7.42422e-06 0.0105355)
(1.40159e-05 -8.37243e-06 0.010529)
(9.02555e-06 -9.02553e-06 0.0105243)
(3.11316e-06 -9.35874e-06 0.0105218)
(-3.11314e-06 -9.35874e-06 0.0105218)
(-9.02553e-06 -9.02553e-06 0.0105243)
(-1.40159e-05 -8.37242e-06 0.010529)
(-1.74864e-05 -7.42425e-06 0.0105355)
(-1.92246e-05 -6.17703e-06 0.0105434)
(1.8238e-05 -9.72826e-06 0.010546)
(1.62526e-05 -1.15546e-05 0.010539)
(1.30161e-05 -1.3016e-05 0.0105332)
(8.37244e-06 -1.40159e-05 0.010529)
(2.88637e-06 -1.4526e-05 0.0105268)
(-2.88635e-06 -1.4526e-05 0.0105268)
(-8.37242e-06 -1.40159e-05 0.010529)
(-1.30161e-05 -1.30161e-05 0.0105332)
(-1.62526e-05 -1.15547e-05 0.010539)
(-1.82379e-05 -9.72824e-06 0.010546)
(1.64528e-05 -1.24037e-05 0.0105496)
(1.44724e-05 -1.44724e-05 0.0105439)
(1.15547e-05 -1.62526e-05 0.010539)
(7.42412e-06 -1.74864e-05 0.0105355)
(2.55782e-06 -1.81294e-05 0.0105337)
(-2.55786e-06 -1.81294e-05 0.0105337)
(-7.42423e-06 -1.74863e-05 0.0105355)
(-1.15547e-05 -1.62526e-05 0.010539)
(-1.44722e-05 -1.44722e-05 0.0105439)
(-1.64526e-05 -1.24036e-05 0.0105496)
(1.56128e-05 -1.5613e-05 0.010554)
(1.24037e-05 -1.64528e-05 0.0105496)
(9.72833e-06 -1.82381e-05 0.010546)
(6.17708e-06 -1.92247e-05 0.0105434)
(2.11083e-06 -1.97548e-05 0.010542)
(-2.11071e-06 -1.97548e-05 0.010542)
(-6.177e-06 -1.92246e-05 0.0105434)
(-9.72828e-06 -1.82379e-05 0.010546)
(-1.24036e-05 -1.64526e-05 0.0105496)
(-1.56128e-05 -1.56128e-05 0.010554)
(5.48839e-06 5.48845e-06 0.0105537)
(4.43107e-06 5.93463e-06 0.0105522)
(3.52657e-06 6.68037e-06 0.0105508)
(2.25761e-06 7.12037e-06 0.0105499)
(7.74939e-07 7.35615e-06 0.0105493)
(-7.749e-07 7.35613e-06 0.0105493)
(-2.25747e-06 7.12033e-06 0.0105499)
(-3.52638e-06 6.68032e-06 0.0105508)
(-4.43111e-06 5.93449e-06 0.0105522)
(-5.48853e-06 5.48838e-06 0.0105537)
(5.93462e-06 4.43112e-06 0.0105522)
(5.31997e-06 5.32002e-06 0.01055)
(4.31546e-06 6.09623e-06 0.0105482)
(2.80124e-06 6.64622e-06 0.0105468)
(9.70024e-07 6.93525e-06 0.0105461)
(-9.70043e-07 6.93526e-06 0.0105461)
(-2.80127e-06 6.64622e-06 0.0105468)
(-4.31559e-06 6.09617e-06 0.0105482)
(-5.31989e-06 5.31986e-06 0.01055)
(-5.93445e-06 4.43105e-06 0.0105522)
(6.68037e-06 3.52658e-06 0.0105508)
(6.0962e-06 4.31549e-06 0.0105482)
(4.96943e-06 4.96947e-06 0.0105458)
(3.23299e-06 5.42905e-06 0.0105441)
(1.12096e-06 5.6672e-06 0.0105432)
(-1.12092e-06 5.66722e-06 0.0105432)
(-3.23294e-06 5.42909e-06 0.0105441)
(-4.9694e-06 4.96955e-06 0.0105458)
(-6.09623e-06 4.31569e-06 0.0105482)
(-6.68039e-06 3.52658e-06 0.0105508)
(7.12039e-06 2.25759e-06 0.0105499)
(6.6462e-06 2.80124e-06 0.0105468)
(5.42901e-06 3.23301e-06 0.0105441)
(3.53954e-06 3.53956e-06 0.0105422)
(1.22848e-06 3.69864e-06 0.0105411)
(-1.22843e-06 3.69864e-06 0.0105411)
(-3.53951e-06 3.53955e-06 0.0105422)
(-5.42899e-06 3.23298e-06 0.0105441)
(-6.64623e-06 2.8012e-06 0.0105468)
(-7.1204e-06 2.25757e-06 0.0105499)
(7.35616e-06 7.74934e-07 0.0105493)
(6.93524e-06 9.70011e-07 0.0105461)
(5.66718e-06 1.12097e-06 0.0105432)
(3.69862e-06 1.22848e-06 0.0105411)
(1.2842e-06 1.28421e-06 0.01054)
(-1.28416e-06 1.2842e-06 0.01054)
(-3.69859e-06 1.22847e-06 0.0105411)
(-5.66716e-06 1.12096e-06 0.0105432)
(-6.93525e-06 9.70016e-07 0.0105461)
(-7.35613e-06 7.74977e-07 0.0105493)
(7.35613e-06 -7.74885e-07 0.0105493)
(6.93525e-06 -9.70039e-07 0.0105461)
(5.6672e-06 -1.12092e-06 0.0105432)
(3.69862e-06 -1.22842e-06 0.0105411)
(1.28419e-06 -1.28415e-06 0.01054)
(-1.28417e-06 -1.28416e-06 0.01054)
(-3.69859e-06 -1.22844e-06 0.0105411)
(-5.66716e-06 -1.12093e-06 0.0105432)
(-6.93523e-06 -9.70045e-07 0.0105461)
(-7.3561e-06 -7.74859e-07 0.0105493)
(7.12036e-06 -2.25749e-06 0.0105499)
(6.64619e-06 -2.80127e-06 0.0105468)
(5.42907e-06 -3.23293e-06 0.0105441)
(3.53954e-06 -3.5395e-06 0.0105422)
(1.22846e-06 -3.69859e-06 0.0105411)
(-1.22845e-06 -3.69859e-06 0.0105411)
(-3.53952e-06 -3.53952e-06 0.0105422)
(-5.42904e-06 -3.23295e-06 0.0105441)
(-6.64616e-06 -2.80128e-06 0.0105468)
(-7.12029e-06 -2.25746e-06 0.0105499)
(6.68033e-06 -3.52645e-06 0.0105508)
(6.09618e-06 -4.31562e-06 0.0105482)
(4.96954e-06 -4.96939e-06 0.0105458)
(3.23296e-06 -5.429e-06 0.0105441)
(1.12094e-06 -5.66717e-06 0.0105432)
(-1.12094e-06 -5.66717e-06 0.0105432)
(-3.23295e-06 -5.42905e-06 0.0105441)
(-4.9695e-06 -4.9695e-06 0.0105458)
(-6.09613e-06 -4.31571e-06 0.0105482)
(-6.68024e-06 -3.52644e-06 0.0105508)
(5.93449e-06 -4.43115e-06 0.0105522)
(5.3199e-06 -5.31989e-06 0.01055)
(4.31569e-06 -6.09623e-06 0.0105482)
(2.80119e-06 -6.64624e-06 0.0105468)
(9.70008e-07 -6.93525e-06 0.0105461)
(-9.70055e-07 -6.93523e-06 0.0105461)
(-2.80127e-06 -6.64615e-06 0.0105468)
(-4.3157e-06 -6.09615e-06 0.0105482)
(-5.31975e-06 -5.3198e-06 0.01055)
(-5.93434e-06 -4.43109e-06 0.0105522)
(5.48839e-06 -5.48856e-06 0.0105537)
(4.43109e-06 -5.93449e-06 0.0105522)
(3.52654e-06 -6.68041e-06 0.0105508)
(2.25755e-06 -7.12037e-06 0.0105499)
(7.74971e-07 -7.35612e-06 0.0105493)
(-7.74866e-07 -7.3561e-06 0.0105493)
(-2.25748e-06 -7.12028e-06 0.0105499)
(-3.52651e-06 -6.68025e-06 0.0105508)
(-4.43107e-06 -5.93438e-06 0.0105522)
(-5.48847e-06 -5.48848e-06 0.0105537)
(1.94309e-06 1.94314e-06 0.0105533)
(1.58238e-06 2.13337e-06 0.0105528)
(1.2698e-06 2.42494e-06 0.0105523)
(8.16759e-07 2.60318e-06 0.0105519)
(2.81079e-07 2.69892e-06 0.0105518)
(-2.81076e-07 2.6989e-06 0.0105518)
(-8.16639e-07 2.60314e-06 0.0105519)
(-1.2696e-06 2.42486e-06 0.0105523)
(-1.58242e-06 2.13338e-06 0.0105528)
(-1.94328e-06 1.94315e-06 0.0105533)
(2.13336e-06 1.58241e-06 0.0105528)
(1.93457e-06 1.93461e-06 0.010552)
(1.58482e-06 2.2466e-06 0.0105513)
(1.03542e-06 2.47113e-06 0.0105508)
(3.5972e-07 2.58999e-06 0.0105505)
(-3.59752e-07 2.59001e-06 0.0105505)
(-1.03546e-06 2.47116e-06 0.0105508)
(-1.58485e-06 2.24657e-06 0.0105513)
(-1.93442e-06 1.9345e-06 0.010552)
(-2.13326e-06 1.58241e-06 0.0105528)
(2.42491e-06 1.26978e-06 0.0105523)
(2.24657e-06 1.58483e-06 0.0105513)
(1.85261e-06 1.85263e-06 0.0105504)
(1.21447e-06 2.04439e-06 0.0105497)
(4.22733e-07 2.14486e-06 0.0105494)
(-4.22678e-07 2.14488e-06 0.0105494)
(-1.21441e-06 2.04445e-06 0.0105497)
(-1.85254e-06 1.85272e-06 0.0105504)
(-2.24656e-06 1.58497e-06 0.0105513)
(-2.425e-06 1.26971e-06 0.0105523)
(2.60318e-06 8.16749e-07 0.0105519)
(2.47113e-06 1.03545e-06 0.0105508)
(2.04437e-06 1.21449e-06 0.0105497)
(1.34421e-06 1.34423e-06 0.010549)
(4.6855e-07 1.41234e-06 0.0105486)
(-4.68488e-07 1.41234e-06 0.0105486)
(-1.34417e-06 1.34422e-06 0.010549)
(-2.04434e-06 1.21446e-06 0.0105497)
(-2.47116e-06 1.0354e-06 0.0105508)
(-2.6032e-06 8.16693e-07 0.0105519)
(2.69893e-06 2.81089e-07 0.0105518)
(2.58998e-06 3.59733e-07 0.0105505)
(2.14483e-06 4.22737e-07 0.0105494)
(1.41232e-06 4.68552e-07 0.0105486)
(4.92585e-07 4.92592e-07 0.0105481)
(-4.92535e-07 4.92584e-07 0.0105481)
(-1.41229e-06 4.68536e-07 0.0105486)
(-2.14481e-06 4.22721e-07 0.0105494)
(-2.58999e-06 3.59719e-07 0.0105505)
(-2.69891e-06 2.8114e-07 0.0105518)
(2.69891e-06 -2.81085e-07 0.0105518)
(2.59e-06 -3.59754e-07 0.0105505)
(2.14485e-06 -4.22678e-07 0.0105494)
(1.41233e-06 -4.68484e-07 0.0105486)
(4.92581e-07 -4.92528e-07 0.0105481)
(-4.92543e-07 -4.92539e-07 0.0105481)
(-1.41229e-06 -4.68509e-07 0.0105486)
(-2.14482e-06 -4.22696e-07 0.0105494)
(-2.58997e-06 -3.5975e-07 0.0105505)
(-2.69888e-06 -2.81017e-07 0.0105518)
(2.60316e-06 -8.1667e-07 0.0105519)
(2.47116e-06 -1.03545e-06 0.0105508)
(2.04443e-06 -1.2144e-06 0.0105497)
(1.34421e-06 -1.34416e-06 0.010549)
(4.6853e-07 -1.41229e-06 0.0105486)
(-4.68516e-07 -1.4123e-06 0.0105486)
(-1.34418e-06 -1.34419e-06 0.010549)
(-2.04438e-06 -1.21442e-06 0.0105497)
(-2.47109e-06 -1.03546e-06 0.0105508)
(-2.60311e-06 -8.16609e-07 0.0105519)
(2.42489e-06 -1.2696e-06 0.0105523)
(2.2466e-06 -1.58491e-06 0.0105513)
(1.8527e-06 -1.85256e-06 0.0105504)
(1.21443e-06 -2.04435e-06 0.0105497)
(4.22704e-07 -2.14482e-06 0.0105494)
(-4.22706e-07 -2.14484e-06 0.0105494)
(-1.21442e-06 -2.0444e-06 0.0105497)
(-1.85266e-06 -1.85266e-06 0.0105504)
(-2.24651e-06 -1.58508e-06 0.0105513)
(-2.42481e-06 -1.26965e-06 0.0105523)
(2.13328e-06 -1.58238e-06 0.0105528)
(1.93449e-06 -1.9345e-06 0.010552)
(1.585e-06 -2.24662e-06 0.0105513)
(1.03538e-06 -2.47117e-06 0.0105508)
(3.59709e-07 -2.58999e-06 0.0105505)
(-3.5976e-07 -2.58998e-06 0.0105505)
(-1.03545e-06 -2.47109e-06 0.0105508)
(-1.58506e-06 -2.24652e-06 0.0105513)
(-1.93434e-06 -1.93439e-06 0.010552)
(-2.13307e-06 -1.58239e-06 0.0105528)
(1.94311e-06 -1.94325e-06 0.0105533)
(1.58235e-06 -2.13326e-06 0.0105528)
(1.26976e-06 -2.42497e-06 0.0105523)
(8.16724e-07 -2.60319e-06 0.0105519)
(2.81123e-07 -2.6989e-06 0.0105518)
(-2.81034e-07 -2.69887e-06 0.0105518)
(-8.1661e-07 -2.6031e-06 0.0105519)
(-1.26969e-06 -2.42484e-06 0.0105523)
(-1.58238e-06 -2.1331e-06 0.0105528)
(-1.94314e-06 -1.94318e-06 0.0105533)
(6.93971e-07 6.93884e-07 0.0105531)
(5.67584e-07 7.685e-07 0.0105529)
(4.57455e-07 8.7865e-07 0.0105528)
(2.94949e-07 9.47297e-07 0.0105526)
(1.0162e-07 9.84267e-07 0.0105526)
(-1.01666e-07 9.84255e-07 0.0105526)
(-2.94901e-07 9.47265e-07 0.0105526)
(-4.57283e-07 8.78629e-07 0.0105528)
(-5.6754e-07 7.68511e-07 0.0105529)
(-6.94015e-07 6.94075e-07 0.0105531)
(7.68492e-07 5.67553e-07 0.0105529)
(7.01444e-07 7.01422e-07 0.0105526)
(5.77875e-07 8.21232e-07 0.0105524)
(3.79025e-07 9.084e-07 0.0105522)
(1.31928e-07 9.54791e-07 0.0105521)
(-1.31954e-07 9.54821e-07 0.0105521)
(-3.79039e-07 9.08467e-07 0.0105522)
(-5.779e-07 8.21308e-07 0.0105524)
(-7.01274e-07 7.01429e-07 0.0105526)
(-7.68469e-07 5.67575e-07 0.0105529)
(8.78588e-07 4.57451e-07 0.0105528)
(8.21259e-07 5.77877e-07 0.0105524)
(6.82055e-07 6.82047e-07 0.0105521)
(4.4926e-07 7.57557e-07 0.0105518)
(1.56769e-07 7.97429e-07 0.0105517)
(-1.56711e-07 7.9745e-07 0.0105517)
(-4.49173e-07 7.57619e-07 0.0105518)
(-6.81935e-07 6.82128e-07 0.0105521)
(-8.21278e-07 5.78026e-07 0.0105524)
(-8.78738e-07 4.57349e-07 0.0105528)
(9.47263e-07 2.94997e-07 0.0105526)
(9.08412e-07 3.79064e-07 0.0105522)
(7.57557e-07 4.49273e-07 0.0105518)
(5.00835e-07 5.00841e-07 0.0105515)
(1.75075e-07 5.28148e-07 0.0105514)
(-1.75011e-07 5.28148e-07 0.0105514)
(-5.00779e-07 5.00835e-07 0.0105515)
(-7.57496e-07 4.4922e-07 0.0105518)
(-9.08438e-07 3.78958e-07 0.0105522)
(-9.47338e-07 2.94941e-07 0.0105526)
(9.84271e-07 1.0165e-07 0.0105526)
(9.54782e-07 1.31947e-07 0.0105521)
(7.97406e-07 1.56776e-07 0.0105517)
(5.28135e-07 1.75081e-07 0.0105514)
(1.84758e-07 1.84765e-07 0.0105512)
(-1.84706e-07 1.84754e-07 0.0105512)
(-5.28096e-07 1.75055e-07 0.0105514)
(-7.97378e-07 1.56742e-07 0.0105517)
(-9.54786e-07 1.31905e-07 0.0105521)
(-9.84268e-07 1.01697e-07 0.0105526)
(9.84245e-07 -1.01677e-07 0.0105526)
(9.5481e-07 -1.31953e-07 0.0105521)
(7.97437e-07 -1.56702e-07 0.0105517)
(5.2814e-07 -1.75004e-07 0.0105514)
(1.84748e-07 -1.84701e-07 0.0105512)
(-1.84721e-07 -1.84713e-07 0.0105512)
(-5.28106e-07 -1.7504e-07 0.0105514)
(-7.97392e-07 -1.56738e-07 0.0105517)
(-9.54763e-07 -1.31967e-07 0.0105521)
(-9.84234e-07 -1.01598e-07 0.0105526)
(9.47262e-07 -2.94881e-07 0.0105526)
(9.08475e-07 -3.79012e-07 0.0105522)
(7.57602e-07 -4.49167e-07 0.0105518)
(5.00819e-07 -5.00785e-07 0.0105515)
(1.75048e-07 -5.28097e-07 0.0105514)
(-1.75045e-07 -5.28101e-07 0.0105514)
(-5.00803e-07 -5.008e-07 0.0105515)
(-7.57553e-07 -4.49207e-07 0.0105518)
(-9.08372e-07 -3.7906e-07 0.0105522)
(-9.47221e-07 -2.94851e-07 0.0105526)
(8.78634e-07 -4.57214e-07 0.0105528)
(8.21287e-07 -5.77921e-07 0.0105524)
(6.82085e-07 -6.81983e-07 0.0105521)
(4.49207e-07 -7.57527e-07 0.0105518)
(1.56748e-07 -7.97384e-07 0.0105517)
(-1.56741e-07 -7.97393e-07 0.0105517)
(-4.49212e-07 -7.57559e-07 0.0105518)
(-6.82083e-07 -6.82084e-07 0.0105521)
(-8.21184e-07 -5.78064e-07 0.0105524)
(-8.78536e-07 -4.57299e-07 0.0105528)
(7.68528e-07 -5.67607e-07 0.0105529)
(7.01337e-07 -7.01422e-07 0.0105526)
(5.78001e-07 -8.21305e-07 0.0105524)
(3.78987e-07 -9.08424e-07 0.0105522)
(1.31929e-07 -9.54775e-07 0.0105521)
(-1.31973e-07 -9.5476e-07 0.0105521)
(-3.79063e-07 -9.08366e-07 0.0105522)
(-5.78057e-07 -8.21171e-07 0.0105524)
(-7.01185e-07 -7.01197e-07 0.0105526)
(-7.68267e-07 -5.6758e-07 0.0105529)
(6.93953e-07 -6.94122e-07 0.0105531)
(5.67567e-07 -7.6846e-07 0.0105529)
(4.57477e-07 -8.78699e-07 0.0105528)
(2.94971e-07 -9.47302e-07 0.0105526)
(1.01691e-07 -9.84257e-07 0.0105526)
(-1.01607e-07 -9.84225e-07 0.0105526)
(-2.94846e-07 -9.47201e-07 0.0105526)
(-4.57317e-07 -8.78538e-07 0.0105528)
(-5.67591e-07 -7.68272e-07 0.0105529)
(-6.93994e-07 -6.94006e-07 0.0105531)
(2.49203e-07 2.49098e-07 0.010553)
(2.04191e-07 2.77292e-07 0.010553)
(1.64928e-07 3.18202e-07 0.0105529)
(1.06493e-07 3.43982e-07 0.0105529)
(3.67049e-08 3.57887e-07 0.0105528)
(-3.67414e-08 3.57884e-07 0.0105528)
(-1.06457e-07 3.43959e-07 0.0105529)
(-1.64821e-07 3.18184e-07 0.0105529)
(-2.04172e-07 2.77342e-07 0.010553)
(-2.4923e-07 2.4922e-07 0.010553)
(2.77269e-07 2.04167e-07 0.010553)
(2.54015e-07 2.53983e-07 0.0105529)
(2.09986e-07 2.98939e-07 0.0105528)
(1.38037e-07 3.31835e-07 0.0105527)
(4.8101e-08 3.49413e-07 0.0105527)
(-4.81018e-08 3.4944e-07 0.0105527)
(-1.38031e-07 3.31893e-07 0.0105527)
(-2.0997e-07 2.98992e-07 0.0105528)
(-2.53957e-07 2.54035e-07 0.0105529)
(-2.77299e-07 2.0421e-07 0.010553)
(3.18164e-07 1.64954e-07 0.0105529)
(2.98951e-07 2.09987e-07 0.0105528)
(2.49336e-07 2.49335e-07 0.0105526)
(1.64715e-07 2.78084e-07 0.0105526)
(5.75758e-08 2.93357e-07 0.0105525)
(-5.75203e-08 2.9337e-07 0.0105525)
(-1.64655e-07 2.78131e-07 0.0105526)
(-2.49239e-07 2.49379e-07 0.0105526)
(-2.9895e-07 2.10059e-07 0.0105528)
(-3.18291e-07 1.64943e-07 0.0105529)
(3.43963e-07 1.06516e-07 0.0105529)
(3.31837e-07 1.3805e-07 0.0105527)
(2.78084e-07 1.64719e-07 0.0105526)
(1.84483e-07 1.84487e-07 0.0105524)
(6.46189e-08 1.95018e-07 0.0105524)
(-6.45555e-08 1.95017e-07 0.0105524)
(-1.84438e-07 1.8449e-07 0.0105524)
(-2.78042e-07 1.64699e-07 0.0105526)
(-3.31841e-07 1.37982e-07 0.0105527)
(-3.44005e-07 1.0649e-07 0.0105529)
(3.57895e-07 3.67096e-08 0.0105528)
(3.49405e-07 4.80983e-08 0.0105527)
(2.93349e-07 5.75755e-08 0.0105525)
(1.95015e-07 6.46233e-08 0.0105524)
(6.83652e-08 6.83688e-08 0.0105523)
(-6.83078e-08 6.83608e-08 0.0105523)
(-1.94969e-07 6.46064e-08 0.0105524)
(-2.93318e-07 5.75658e-08 0.0105525)
(-3.49401e-07 4.80866e-08 0.0105527)
(-3.57888e-07 3.67576e-08 0.0105528)
(3.57875e-07 -3.67459e-08 0.0105528)
(3.49437e-07 -4.81e-08 0.0105527)
(2.93376e-07 -5.751e-08 0.0105525)
(1.95016e-07 -6.45529e-08 0.0105524)
(6.83564e-08 -6.8305e-08 0.0105523)
(-6.83175e-08 -6.83153e-08 0.0105523)
(-1.94972e-07 -6.45792e-08 0.0105524)
(-2.93329e-07 -5.75427e-08 0.0105525)
(-3.49389e-07 -4.81238e-08 0.0105527)
(-3.5786e-07 -3.66853e-08 0.0105528)
(3.4396e-07 -1.06442e-07 0.0105529)
(3.31898e-07 -1.38015e-07 0.0105527)
(2.78123e-07 -1.64654e-07 0.0105526)
(1.84479e-07 -1.84443e-07 0.0105524)
(6.46025e-08 -1.94965e-07 0.0105524)
(-6.4582e-08 -1.94973e-07 0.0105524)
(-1.84456e-07 -1.8446e-07 0.0105524)
(-2.78089e-07 -1.64678e-07 0.0105526)
(-3.31806e-07 -1.38035e-07 0.0105527)
(-3.43906e-07 -1.06392e-07 0.0105529)
(3.18195e-07 -1.64821e-07 0.0105529)
(2.9898e-07 -2.10033e-07 0.0105528)
(2.4937e-07 -2.493e-07 0.0105526)
(1.64703e-07 -2.78049e-07 0.0105526)
(5.75644e-08 -2.93311e-07 0.0105525)
(-5.75535e-08 -2.9333e-07 0.0105525)
(-1.64676e-07 -2.78094e-07 0.0105526)
(-2.49329e-07 -2.49337e-07 0.0105526)
(-2.98864e-07 -2.10049e-07 0.0105528)
(-3.18125e-07 -1.64845e-07 0.0105529)
(2.77243e-07 -2.04172e-07 0.010553)
(2.53974e-07 -2.53962e-07 0.0105529)
(2.10103e-07 -2.98912e-07 0.0105528)
(1.3804e-07 -3.31808e-07 0.0105527)
(4.80889e-08 -3.49386e-07 0.0105527)
(-4.81381e-08 -3.49378e-07 0.0105527)
(-1.38035e-07 -3.31794e-07 0.0105527)
(-2.10044e-07 -2.98868e-07 0.0105528)
(-2.53857e-07 -2.53865e-07 0.0105529)
(-2.77161e-07 -2.04233e-07 0.010553)
(2.49102e-07 -2.49188e-07 0.010553)
(2.04231e-07 -2.7719e-07 0.010553)
(1.64973e-07 -3.18197e-07 0.0105529)
(1.06466e-07 -3.43979e-07 0.0105529)