/*--------------------------------*- C++ -*----------------------------------*\
| =========                 |                                                 |
| \\      /  F ield         | OpenFOAM: The Open Source CFD Toolbox           |
|  \\    /   O peration     | Version:  2412                                  |
|   \\  /    A nd           | Website:  www.openfoam.com                      |
|    \\/     M anipulation  |                                                 |
\*---------------------------------------------------------------------------*/
FoamFile
{
    version     2.0;
    format      ascii;
    arch        "LSB;label=32;scalar=64";
    class       surfaceScalarField;
    location    "2.1";
    object      phi;
}
// * * * * * * * * * * * * * * * * * * * * * * * * * * * * * * * * * * * * * //

dimensions      [0 3 -1 0 0 0 0];

oriented        oriented;

internalField   nonuniform List<scalar> 
43700
(
3.50554e-05
3.50554e-05
5.67904e-05
-3.99497e-05
-3.99497e-05
2.79896e-05
3.49061e-05
6.361e-05
-4.0512e-05
1.93664e-05
3.43001e-05
6.84081e-05
-4.01419e-05
9.87197e-06
3.37124e-05
7.14682e-05
-3.97149e-05
3.03252e-14
3.33716e-05
7.29485e-05
-3.94552e-05
-9.87197e-06
3.33716e-05
7.29485e-05
-3.94552e-05
-1.93664e-05
3.37124e-05
7.14682e-05
-3.97149e-05
-2.79896e-05
3.43001e-05
6.84081e-05
-4.01419e-05
-3.50554e-05
3.49061e-05
6.361e-05
-4.0512e-05
3.50554e-05
5.67904e-05
-3.99497e-05
-3.99497e-05
3.49061e-05
2.79896e-05
6.361e-05
-4.0512e-05
2.72463e-05
2.72463e-05
6.99039e-05
1.8527e-05
2.64289e-05
7.39595e-05
9.3411e-06
2.57681e-05
7.63798e-05
3.7901e-14
2.54048e-05
7.75051e-05
-9.3411e-06
2.54048e-05
7.75051e-05
-1.8527e-05
2.57681e-05
7.63798e-05
-2.72463e-05
2.64289e-05
7.39595e-05
-3.49061e-05
2.72463e-05
6.99039e-05
2.79896e-05
6.361e-05
-4.0512e-05
3.43001e-05
1.93664e-05
6.84081e-05
-4.01419e-05
2.64289e-05
1.8527e-05
7.39595e-05
1.77621e-05
1.77621e-05
7.7321e-05
8.88607e-06
1.71912e-05
7.92091e-05
4.47654e-14
1.68879e-05
8.00508e-05
-8.88607e-06
1.68879e-05
8.00508e-05
-1.77621e-05
1.71912e-05
7.92091e-05
-2.64289e-05
1.77621e-05
7.7321e-05
-3.43001e-05
1.8527e-05
7.39595e-05
1.93664e-05
6.84081e-05
-4.01419e-05
3.37124e-05
9.87197e-06
7.14682e-05
-3.97149e-05
2.57681e-05
9.3411e-06
7.63798e-05
1.71912e-05
8.88607e-06
7.92091e-05
8.55751e-06
8.55751e-06
8.07177e-05
5.02763e-14
8.38583e-06
8.13638e-05
-8.55751e-06
8.38583e-06
8.13638e-05
-1.71912e-05
8.55751e-06
8.07177e-05
-2.57681e-05
8.88607e-06
7.92091e-05
-3.37124e-05
9.3411e-06
7.63798e-05
9.87197e-06
7.14682e-05
-3.97149e-05
3.33716e-05
3.61578e-14
7.29485e-05
-3.94552e-05
2.54048e-05
4.50932e-14
7.75051e-05
1.68879e-05
5.23795e-14
8.00508e-05
8.38583e-06
5.72706e-14
8.13638e-05
5.44307e-14
6.06478e-14
8.19109e-05
-8.38583e-06
6.33518e-14
8.19109e-05
-1.68879e-05
6.58473e-14
8.13638e-05
-2.54048e-05
6.79503e-14
8.00508e-05
-3.33716e-05
6.88367e-14
7.75051e-05
6.73023e-14
7.29485e-05
-3.94552e-05
3.33716e-05
-9.87197e-06
7.29485e-05
-3.94552e-05
2.54048e-05
-9.3411e-06
7.75051e-05
1.68879e-05
-8.88607e-06
8.00508e-05
8.38583e-06
-8.55751e-06
8.13638e-05
5.71725e-14
-8.38583e-06
8.19109e-05
-8.38583e-06
-8.38583e-06
8.19109e-05
-1.68879e-05
-8.55751e-06
8.13638e-05
-2.54048e-05
-8.88607e-06
8.00508e-05
-3.33716e-05
-9.3411e-06
7.75051e-05
-9.87197e-06
7.29485e-05
-3.94552e-05
3.37124e-05
-1.93664e-05
7.14682e-05
-3.97149e-05
2.57681e-05
-1.8527e-05
7.63798e-05
1.71912e-05
-1.77621e-05
7.92091e-05
8.55751e-06
-1.71912e-05
8.07177e-05
5.84269e-14
-1.68879e-05
8.13638e-05
-8.55751e-06
-1.68879e-05
8.13638e-05
-1.71912e-05
-1.71912e-05
8.07177e-05
-2.57681e-05
-1.77621e-05
7.92091e-05
-3.37124e-05
-1.8527e-05
7.63798e-05
-1.93664e-05
7.14682e-05
-3.97149e-05
3.43001e-05
-2.79896e-05
6.84081e-05
-4.01419e-05
2.64289e-05
-2.72463e-05
7.39595e-05
1.77621e-05
-2.64289e-05
7.7321e-05
8.88607e-06
-2.57681e-05
7.92091e-05
5.79806e-14
-2.54048e-05
8.00508e-05
-8.88607e-06
-2.54048e-05
8.00508e-05
-1.77621e-05
-2.57681e-05
7.92091e-05
-2.64289e-05
-2.64289e-05
7.7321e-05
-3.43001e-05
-2.72463e-05
7.39595e-05
-2.79896e-05
6.84081e-05
-4.01419e-05
3.49061e-05
-3.50554e-05
6.361e-05
-4.0512e-05
2.72463e-05
-3.49061e-05
6.99039e-05
1.8527e-05
-3.43001e-05
7.39595e-05
9.3411e-06
-3.37124e-05
7.63798e-05
5.54786e-14
-3.33716e-05
7.75051e-05
-9.3411e-06
-3.33716e-05
7.75051e-05
-1.8527e-05
-3.37124e-05
7.63798e-05
-2.72463e-05
-3.43001e-05
7.39595e-05
-3.49061e-05
-3.49061e-05
6.99039e-05
-3.50554e-05
6.361e-05
-4.0512e-05
3.50554e-05
5.67904e-05
-3.99497e-05
-3.99497e-05
2.79896e-05
6.361e-05
-4.0512e-05
1.93664e-05
6.84081e-05
-4.01419e-05
9.87197e-06
7.14682e-05
-3.97149e-05
5.09341e-14
7.29485e-05
-3.94552e-05
-9.87197e-06
7.29485e-05
-3.94552e-05
-1.93664e-05
7.14682e-05
-3.97149e-05
-2.79896e-05
6.84081e-05
-4.01419e-05
-3.50554e-05
6.361e-05
-4.0512e-05
5.67904e-05
-3.99497e-05
-3.99497e-05
1.98762e-05
1.98762e-05
5.71029e-05
-2.00325e-05
-2.00325e-05
1.73632e-05
2.21649e-05
6.61817e-05
-2.22236e-05
1.27974e-05
2.37475e-05
7.30466e-05
-2.38201e-05
6.77529e-06
2.47451e-05
7.76042e-05
-2.48591e-05
6.06404e-14
2.52218e-05
7.98656e-05
-2.53637e-05
-6.77529e-06
2.52218e-05
7.98656e-05
-2.53637e-05
-1.27974e-05
2.47451e-05
7.76042e-05
-2.48591e-05
-1.73632e-05
2.37475e-05
7.30466e-05
-2.38201e-05
-1.98762e-05
2.21649e-05
6.61817e-05
-2.22236e-05
1.98762e-05
5.71029e-05
-2.00325e-05
-2.00325e-05
2.21649e-05
1.73632e-05
6.61817e-05
-2.22236e-05
1.92434e-05
1.92434e-05
7.57469e-05
1.40667e-05
2.05089e-05
8.23748e-05
7.40169e-06
2.12803e-05
8.65096e-05
7.35934e-14
2.16425e-05
8.84861e-05
-7.40169e-06
2.16425e-05
8.84861e-05
-1.40667e-05
2.12803e-05
8.65096e-05
-1.92434e-05
2.05089e-05
8.23748e-05
-2.21649e-05
1.92434e-05
7.57469e-05
1.73632e-05
6.61817e-05
-2.22236e-05
2.37475e-05
1.27974e-05
7.30466e-05
-2.38201e-05
2.05089e-05
1.40667e-05
8.23748e-05
1.49074e-05
1.49074e-05
8.85238e-05
7.81118e-06
1.54058e-05
9.21799e-05
8.38885e-14
1.56361e-05
9.38685e-05
-7.81118e-06
1.56361e-05
9.38685e-05
-1.49074e-05
1.54058e-05
9.21799e-05
-2.05089e-05
1.49074e-05
8.85238e-05
-2.37475e-05
1.40667e-05
8.23748e-05
1.27974e-05
7.30466e-05
-2.38201e-05
2.47451e-05
6.77529e-06
7.76042e-05
-2.48591e-05
2.12803e-05
7.40169e-06
8.65096e-05
1.54058e-05
7.81118e-06
9.21799e-05
8.04889e-06
8.04889e-06
9.54316e-05
9.12183e-14
8.15735e-06
9.68914e-05
-8.04889e-06
8.15735e-06
9.68914e-05
-1.54058e-05
8.04889e-06
9.54316e-05
-2.12803e-05
7.81118e-06
9.21799e-05
-2.47451e-05
7.40169e-06
8.65096e-05
6.77529e-06
7.76042e-05
-2.48591e-05
2.52218e-05
6.92507e-14
7.98656e-05
-2.53637e-05
2.16425e-05
8.38505e-14
8.84861e-05
1.56361e-05
9.67404e-14
9.38685e-05
8.15735e-06
1.07142e-13
9.68914e-05
9.67847e-14
1.14831e-13
9.82256e-05
-8.15735e-06
1.19461e-13
9.82256e-05
-1.56361e-05
1.21443e-13
9.68914e-05
-2.16425e-05
1.21538e-13
9.38685e-05
-2.52218e-05
1.19587e-13
8.84861e-05
1.13811e-13
7.98656e-05
-2.53637e-05
2.52218e-05
-6.77529e-06
7.98656e-05
-2.53637e-05
2.16425e-05
-7.40169e-06
8.84861e-05
1.56361e-05
-7.81118e-06
9.38685e-05
8.15735e-06
-8.04889e-06
9.68914e-05
1.01409e-13
-8.15735e-06
9.82256e-05
-8.15735e-06
-8.15735e-06
9.82256e-05
-1.56361e-05
-8.04889e-06
9.68914e-05
-2.16425e-05
-7.81118e-06
9.38685e-05
-2.52218e-05
-7.40169e-06
8.84861e-05
-6.77529e-06
7.98656e-05
-2.53637e-05
2.47451e-05
-1.27974e-05
7.76042e-05
-2.48591e-05
2.12803e-05
-1.40667e-05
8.65096e-05
1.54058e-05
-1.49074e-05
9.21799e-05
8.04889e-06
-1.54058e-05
9.54316e-05
1.04478e-13
-1.56361e-05
9.68914e-05
-8.04889e-06
-1.56361e-05
9.68914e-05
-1.54058e-05
-1.54058e-05
9.54316e-05
-2.12803e-05
-1.49074e-05
9.21799e-05
-2.47451e-05
-1.40667e-05
8.65096e-05
-1.27974e-05
7.76042e-05
-2.48591e-05
2.37475e-05
-1.73632e-05
7.30466e-05
-2.38201e-05
2.05089e-05
-1.92434e-05
8.23748e-05
1.49074e-05
-2.05089e-05
8.85238e-05
7.81118e-06
-2.12803e-05
9.21799e-05
1.04141e-13
-2.16425e-05
9.38685e-05
-7.81118e-06
-2.16425e-05
9.38685e-05
-1.49074e-05
-2.12803e-05
9.21799e-05
-2.05089e-05
-2.05089e-05
8.85238e-05
-2.37475e-05
-1.92434e-05
8.23748e-05
-1.73632e-05
7.30466e-05
-2.38201e-05
2.21649e-05
-1.98762e-05
6.61817e-05
-2.22236e-05
1.92434e-05
-2.21649e-05
7.57469e-05
1.40667e-05
-2.37475e-05
8.23748e-05
7.40169e-06
-2.47451e-05
8.65096e-05
9.86854e-14
-2.52218e-05
8.84861e-05
-7.40169e-06
-2.52218e-05
8.84861e-05
-1.40667e-05
-2.47451e-05
8.65096e-05
-1.92434e-05
-2.37475e-05
8.23748e-05
-2.21649e-05
-2.21649e-05
7.57469e-05
-1.98762e-05
6.61817e-05
-2.22236e-05
1.98762e-05
5.71029e-05
-2.00325e-05
-2.00325e-05
1.73632e-05
6.61817e-05
-2.22236e-05
1.27974e-05
7.30466e-05
-2.38201e-05
6.77529e-06
7.76042e-05
-2.48591e-05
8.80871e-14
7.98656e-05
-2.53637e-05
-6.77529e-06
7.98656e-05
-2.53637e-05
-1.27974e-05
7.76042e-05
-2.48591e-05
-1.73632e-05
7.30466e-05
-2.38201e-05
-1.98762e-05
6.61817e-05
-2.22236e-05
5.71029e-05
-2.00325e-05
-2.00325e-05
1.18522e-05
1.18522e-05
5.51369e-05
-1.08692e-05
-1.08692e-05
1.09851e-05
1.39502e-05
6.57001e-05
-1.26014e-05
8.42716e-06
1.54856e-05
7.40336e-05
-1.39146e-05
4.56587e-06
1.65224e-05
7.97608e-05
-1.48177e-05
7.59745e-14
1.70437e-05
8.26632e-05
-1.52754e-05
-4.56587e-06
1.70437e-05
8.26632e-05
-1.52754e-05
-8.42716e-06
1.65224e-05
7.97608e-05
-1.48177e-05
-1.09851e-05
1.54856e-05
7.40336e-05
-1.39146e-05
-1.18522e-05
1.39502e-05
6.57001e-05
-1.26014e-05
1.18522e-05
5.51369e-05
-1.08692e-05
-1.08692e-05
1.39502e-05
1.09851e-05
6.57001e-05
-1.26014e-05
1.29802e-05
1.29802e-05
7.76868e-05
9.93513e-06
1.44213e-05
8.64842e-05
5.36756e-06
1.53679e-05
9.22317e-05
9.20866e-14
1.58368e-05
9.50605e-05
-5.36756e-06
1.58368e-05
9.50605e-05
-9.93513e-06
1.53679e-05
9.22317e-05
-1.29802e-05
1.44213e-05
8.64842e-05
-1.39502e-05
1.29802e-05
7.76868e-05
1.09851e-05
6.57001e-05
-1.26014e-05
1.54856e-05
8.42716e-06
7.40336e-05
-1.39146e-05
1.44213e-05
9.93513e-06
8.64842e-05
1.10262e-05
1.10262e-05
9.53139e-05
5.9491e-06
1.17311e-05
0.000100894
1.03533e-13
1.20766e-05
0.000103578
-5.9491e-06
1.20766e-05
0.000103578
-1.10262e-05
1.17311e-05
0.000100894
-1.44213e-05
1.10262e-05
9.53139e-05
-1.54856e-05
9.93513e-06
8.64842e-05
8.42716e-06
7.40336e-05
-1.39146e-05
1.65224e-05
4.56587e-06
7.97608e-05
-1.48177e-05
1.53679e-05
5.36756e-06
9.22317e-05
1.17311e-05
5.9491e-06
0.000100894
6.32131e-06
6.32131e-06
0.000106251
1.10532e-13
6.50261e-06
0.000108787
-6.32131e-06
6.50261e-06
0.000108787
-1.17311e-05
6.32131e-06
0.000106251
-1.53679e-05
5.9491e-06
0.000100894
-1.65224e-05
5.36756e-06
9.22317e-05
4.56587e-06
7.97608e-05
-1.48177e-05
1.70437e-05
8.56377e-14
8.26632e-05
-1.52754e-05
1.58368e-05
1.03372e-13
9.50605e-05
1.20766e-05
1.19491e-13
0.000103578
6.50261e-06
1.33869e-13
0.000108787
1.15891e-13
1.45075e-13
0.000111231
-6.50261e-06
1.50879e-13
0.000111231
-1.20766e-05
1.51001e-13
0.000108787
-1.58368e-05
1.473e-13
0.000103578
-1.70437e-05
1.4112e-13
9.50605e-05
1.30967e-13
8.26632e-05
-1.52754e-05
1.70437e-05
-4.56587e-06
8.26632e-05
-1.52754e-05
1.58368e-05
-5.36756e-06
9.50605e-05
1.20766e-05
-5.9491e-06
0.000103578
6.50261e-06
-6.32131e-06
0.000108787
1.21607e-13
-6.50261e-06
0.000111231
-6.50261e-06
-6.50261e-06
0.000111231
-1.20766e-05
-6.32131e-06
0.000108787
-1.58368e-05
-5.9491e-06
0.000103578
-1.70437e-05
-5.36756e-06
9.50605e-05
-4.56587e-06
8.26632e-05
-1.52754e-05
1.65224e-05
-8.42716e-06
7.97608e-05
-1.48177e-05
1.53679e-05
-9.93513e-06
9.22317e-05
1.17311e-05
-1.10262e-05
0.000100894
6.32131e-06
-1.17311e-05
0.000106251
1.26634e-13
-1.20766e-05
0.000108787
-6.32131e-06
-1.20766e-05
0.000108787
-1.17311e-05
-1.17311e-05
0.000106251
-1.53679e-05
-1.10262e-05
0.000100894
-1.65224e-05
-9.93513e-06
9.22317e-05
-8.42716e-06
7.97608e-05
-1.48177e-05
1.54856e-05
-1.09851e-05
7.40336e-05
-1.39146e-05
1.44213e-05
-1.29802e-05
8.64842e-05
1.10262e-05
-1.44213e-05
9.53139e-05
5.9491e-06
-1.53679e-05
0.000100894
1.27293e-13
-1.58368e-05
0.000103578
-5.9491e-06
-1.58368e-05
0.000103578
-1.10262e-05
-1.53679e-05
0.000100894
-1.44213e-05
-1.44213e-05
9.53139e-05
-1.54856e-05
-1.29802e-05
8.64842e-05
-1.09851e-05
7.40336e-05
-1.39146e-05
1.39502e-05
-1.18522e-05
6.57001e-05
-1.26014e-05
1.29802e-05
-1.39502e-05
7.76868e-05
9.93513e-06
-1.54856e-05
8.64842e-05
5.36756e-06
-1.65224e-05
9.22317e-05
1.20223e-13
-1.70437e-05
9.50605e-05
-5.36756e-06
-1.70437e-05
9.50605e-05
-9.93513e-06
-1.65224e-05
9.22317e-05
-1.29802e-05
-1.54856e-05
8.64842e-05
-1.39502e-05
-1.39502e-05
7.76868e-05
-1.18522e-05
6.57001e-05
-1.26014e-05
1.18522e-05
5.51369e-05
-1.08692e-05
-1.08692e-05
1.09851e-05
6.57001e-05
-1.26014e-05
8.42716e-06
7.40336e-05
-1.39146e-05
4.56587e-06
7.97608e-05
-1.48177e-05
1.05327e-13
8.26632e-05
-1.52754e-05
-4.56587e-06
8.26632e-05
-1.52754e-05
-8.42716e-06
7.97608e-05
-1.48177e-05
-1.09851e-05
7.40336e-05
-1.39146e-05
-1.18522e-05
6.57001e-05
-1.26014e-05
5.51369e-05
-1.08692e-05
-1.08692e-05
5.85838e-06
5.85838e-06
5.3741e-05
-5.16041e-06
-5.16041e-06
5.63822e-06
7.24205e-06
6.48777e-05
-6.19951e-06
4.44884e-06
8.34769e-06
7.39322e-05
-7.05695e-06
2.4527e-06
9.13427e-06
8.02948e-05
-7.67206e-06
7.89525e-14
9.54161e-06
8.35654e-05
-7.9911e-06
-2.4527e-06
9.54161e-06
8.35654e-05
-7.9911e-06
-4.44884e-06
9.13427e-06
8.02948e-05
-7.67206e-06
-5.63822e-06
8.34769e-06
7.39322e-05
-7.05695e-06
-5.85838e-06
7.24205e-06
6.48777e-05
-6.19951e-06
5.85838e-06
5.3741e-05
-5.16041e-06
-5.16041e-06
7.24205e-06
5.63822e-06
6.48777e-05
-6.19951e-06
7.05557e-06
7.05557e-06
7.80597e-05
5.5828e-06
8.17671e-06
8.81279e-05
3.0774e-06
8.95779e-06
9.49136e-05
9.34515e-14
9.35826e-06
9.83213e-05
-3.0774e-06
9.35826e-06
9.83213e-05
-5.5828e-06
8.95779e-06
9.49136e-05
-7.05557e-06
8.17671e-06
8.81279e-05
-7.24205e-06
7.05557e-06
7.80597e-05
5.63822e-06
6.48777e-05
-6.19951e-06
8.34769e-06
4.44884e-06
7.39322e-05
-7.05695e-06
8.17671e-06
5.5828e-06
8.81279e-05
6.48255e-06
6.48255e-06
9.87023e-05
3.5746e-06
7.10176e-06
0.000105658
1.06346e-13
7.41692e-06
0.000109094
-3.5746e-06
7.41692e-06
0.000109094
-6.48255e-06
7.10176e-06
0.000105658
-8.17671e-06
6.48255e-06
9.87023e-05
-8.34769e-06
5.5828e-06
8.81279e-05
4.44884e-06
7.39322e-05
-7.05695e-06
9.13427e-06
2.4527e-06
8.02948e-05
-7.67206e-06
8.95779e-06
3.0774e-06
9.49136e-05
7.10176e-06
3.5746e-06
0.000105658
3.91464e-06
3.91464e-06
0.000112625
1.17085e-13
4.08698e-06
0.000116031
-3.91464e-06
4.08698e-06
0.000116031
-7.10176e-06
3.91464e-06
0.000112625
-8.95779e-06
3.5746e-06
0.000105658
-9.13427e-06
3.0774e-06
9.49136e-05
2.4527e-06
8.02948e-05
-7.67206e-06
9.54161e-06
9.05534e-14
8.35654e-05
-7.9911e-06
9.35826e-06
1.12786e-13
9.83213e-05
7.41692e-06
1.2915e-13
0.000109094
4.08698e-06
1.4155e-13
0.000116031
1.25868e-13
1.5153e-13
0.000119405
-4.08698e-06
1.58162e-13
0.000119405
-7.41692e-06
1.60026e-13
0.000116031
-9.35826e-06
1.56824e-13
0.000109094
-9.54161e-06
1.48335e-13
9.83213e-05
1.33006e-13
8.35654e-05
-7.9911e-06
9.54161e-06
-2.4527e-06
8.35654e-05
-7.9911e-06
9.35826e-06
-3.0774e-06
9.83213e-05
7.41692e-06
-3.5746e-06
0.000109094
4.08698e-06
-3.91464e-06
0.000116031
1.3232e-13
-4.08698e-06
0.000119405
-4.08698e-06
-4.08698e-06
0.000119405
-7.41692e-06
-3.91464e-06
0.000116031
-9.35826e-06
-3.5746e-06
0.000109094
-9.54161e-06
-3.0774e-06
9.83213e-05
-2.4527e-06
8.35654e-05
-7.9911e-06
9.13427e-06
-4.44884e-06
8.02948e-05
-7.67206e-06
8.95779e-06
-5.5828e-06
9.49136e-05
7.10176e-06
-6.48255e-06
0.000105658
3.91464e-06
-7.10176e-06
0.000112625
1.35105e-13
-7.41692e-06
0.000116031
-3.91464e-06
-7.41692e-06
0.000116031
-7.10176e-06
-7.10176e-06
0.000112625
-8.95779e-06
-6.48255e-06
0.000105658
-9.13427e-06
-5.5828e-06
9.49136e-05
-4.44884e-06
8.02948e-05
-7.67206e-06
8.34769e-06
-5.63822e-06
7.39322e-05
-7.05695e-06
8.17671e-06
-7.05557e-06
8.81279e-05
6.48255e-06
-8.17671e-06
9.87023e-05
3.5746e-06
-8.95779e-06
0.000105658
1.32107e-13
-9.35826e-06
0.000109094
-3.5746e-06
-9.35826e-06
0.000109094
-6.48255e-06
-8.95779e-06
0.000105658
-8.17671e-06
-8.17671e-06
9.87023e-05
-8.34769e-06
-7.05557e-06
8.81279e-05
-5.63822e-06
7.39322e-05
-7.05695e-06
7.24205e-06
-5.85838e-06
6.48777e-05
-6.19951e-06
7.05557e-06
-7.24205e-06
7.80597e-05
5.5828e-06
-8.34769e-06
8.81279e-05
3.0774e-06
-9.13427e-06
9.49136e-05
1.21966e-13
-9.54161e-06
9.83213e-05
-3.0774e-06
-9.54161e-06
9.83213e-05
-5.5828e-06
-9.13427e-06
9.49136e-05
-7.05557e-06
-8.34769e-06
8.81279e-05
-7.24205e-06
-7.24205e-06
7.80597e-05
-5.85838e-06
6.48777e-05
-6.19951e-06
5.85838e-06
5.3741e-05
-5.16041e-06
-5.16041e-06
5.63822e-06
6.48777e-05
-6.19951e-06
4.44884e-06
7.39322e-05
-7.05695e-06
2.4527e-06
8.02948e-05
-7.67206e-06
1.05386e-13
8.35654e-05
-7.9911e-06
-2.4527e-06
8.35654e-05
-7.9911e-06
-4.44884e-06
8.02948e-05
-7.67206e-06
-5.63822e-06
7.39322e-05
-7.05695e-06
-5.85838e-06
6.48777e-05
-6.19951e-06
5.3741e-05
-5.16041e-06
-5.16041e-06
3.13766e-06
3.13766e-06
5.28085e-05
-2.6714e-06
-2.6714e-06
3.08995e-06
3.94009e-06
6.42305e-05
-3.24517e-06
2.47979e-06
4.60195e-06
7.36666e-05
-3.72623e-06
1.3813e-06
5.08601e-06
8.03851e-05
-4.07785e-06
7.22777e-14
5.34119e-06
8.38681e-05
-4.26264e-06
-1.3813e-06
5.34119e-06
8.38681e-05
-4.26264e-06
-2.47979e-06
5.08601e-06
8.03851e-05
-4.07785e-06
-3.08995e-06
4.60195e-06
7.36666e-05
-3.72623e-06
-3.13766e-06
3.94009e-06
6.42305e-05
-3.24517e-06
3.13766e-06
5.28085e-05
-2.6714e-06
-2.6714e-06
3.94009e-06
3.08995e-06
6.42305e-05
-3.24517e-06
3.94927e-06
3.94927e-06
7.80414e-05
3.19025e-06
4.65769e-06
8.88312e-05
1.78082e-06
5.16767e-06
9.62414e-05
8.32274e-14
5.43451e-06
0.000100009
-1.78082e-06
5.43451e-06
0.000100009
-3.19025e-06
5.16767e-06
9.62414e-05
-3.94927e-06
4.65769e-06
8.88312e-05
-3.94009e-06
3.94927e-06
7.80414e-05
3.08995e-06
6.42305e-05
-3.24517e-06
4.60195e-06
2.47979e-06
7.36666e-05
-3.72623e-06
4.65769e-06
3.19025e-06
8.88312e-05
3.78144e-06
3.78144e-06
0.000100455
2.11545e-06
4.20347e-06
0.000108288
1.00129e-13
4.4231e-06
0.000112221
-2.11545e-06
4.4231e-06
0.000112221
-3.78144e-06
4.20347e-06
0.000108288
-4.65769e-06
3.78144e-06
0.000100455
-4.60195e-06
3.19025e-06
8.88312e-05
2.47979e-06
7.36666e-05
-3.72623e-06
5.08601e-06
1.3813e-06
8.03851e-05
-4.07785e-06
5.16767e-06
1.78082e-06
9.62414e-05
4.20347e-06
2.11545e-06
0.000108288
2.35338e-06
2.35338e-06
0.000116326
1.2096e-13
2.47684e-06
0.000120331
-2.35338e-06
2.47684e-06
0.000120331
-4.20347e-06
2.35338e-06
0.000116326
-5.16767e-06
2.11545e-06
0.000108288
-5.08601e-06
1.78082e-06
9.62414e-05
1.3813e-06
8.03851e-05
-4.07785e-06
5.34119e-06
8.98967e-14
8.38681e-05
-4.26264e-06
5.43451e-06
1.17673e-13
0.000100009
4.4231e-06
1.32336e-13
0.000112221
2.47684e-06
1.36003e-13
0.000120331
1.38134e-13
1.37825e-13
0.000124358
-2.47684e-06
1.44102e-13
0.000124358
-4.4231e-06
1.53308e-13
0.000120331
-5.43451e-06
1.58281e-13
0.000112221
-5.34119e-06
1.51918e-13
0.000100009
1.31942e-13
8.38681e-05
-4.26264e-06
5.34119e-06
-1.3813e-06
8.38681e-05
-4.26264e-06
5.43451e-06
-1.78082e-06
0.000100009
4.4231e-06
-2.11545e-06
0.000112221
2.47684e-06
-2.35338e-06
0.000120331
1.44164e-13
-2.47684e-06
0.000124358
-2.47684e-06
-2.47684e-06
0.000124358
-4.4231e-06
-2.35338e-06
0.000120331
-5.43451e-06
-2.11545e-06
0.000112221
-5.34119e-06
-1.78082e-06
0.000100009
-1.3813e-06
8.38681e-05
-4.26264e-06
5.08601e-06
-2.47979e-06
8.03851e-05
-4.07785e-06
5.16767e-06
-3.19025e-06
9.62414e-05
4.20347e-06
-3.78144e-06
0.000108288
2.35338e-06
-4.20347e-06
0.000116326
1.37767e-13
-4.4231e-06
0.000120331
-2.35338e-06
-4.4231e-06
0.000120331
-4.20347e-06
-4.20347e-06
0.000116326
-5.16767e-06
-3.78144e-06
0.000108288
-5.08601e-06
-3.19025e-06
9.62414e-05
-2.47979e-06
8.03851e-05
-4.07785e-06
4.60195e-06
-3.08995e-06
7.36666e-05
-3.72623e-06
4.65769e-06
-3.94927e-06
8.88312e-05
3.78144e-06
-4.65769e-06
0.000100455
2.11545e-06
-5.16767e-06
0.000108288
1.23844e-13
-5.43451e-06
0.000112221
-2.11545e-06
-5.43451e-06
0.000112221
-3.78144e-06
-5.16767e-06
0.000108288
-4.65769e-06
-4.65769e-06
0.000100455
-4.60195e-06
-3.94927e-06
8.88312e-05
-3.08995e-06
7.36666e-05
-3.72623e-06
3.94009e-06
-3.13766e-06
6.42305e-05
-3.24517e-06
3.94927e-06
-3.94009e-06
7.80414e-05
3.19025e-06
-4.60195e-06
8.88312e-05
1.78082e-06
-5.08601e-06
9.62414e-05
1.08556e-13
-5.34119e-06
0.000100009
-1.78082e-06
-5.34119e-06
0.000100009
-3.19025e-06
-5.08601e-06
9.62414e-05
-3.94927e-06
-4.60195e-06
8.88312e-05
-3.94009e-06
-3.94009e-06
7.80414e-05
-3.13766e-06
6.42305e-05
-3.24517e-06
3.13766e-06
5.28085e-05
-2.6714e-06
-2.6714e-06
3.08995e-06
6.42305e-05
-3.24517e-06
2.47979e-06
7.36666e-05
-3.72623e-06
1.3813e-06
8.03851e-05
-4.07785e-06
9.38841e-14
8.38681e-05
-4.26264e-06
-1.3813e-06
8.38681e-05
-4.26264e-06
-2.47979e-06
8.03851e-05
-4.07785e-06
-3.08995e-06
7.36666e-05
-3.72623e-06
-3.13766e-06
6.42305e-05
-3.24517e-06
5.28085e-05
-2.6714e-06
-2.6714e-06
1.64166e-06
1.64166e-06
5.2289e-05
-1.38191e-06
-1.38191e-06
1.63975e-06
2.09453e-06
6.38333e-05
-1.69546e-06
1.33154e-06
2.4802e-06
7.34598e-05
-1.9652e-06
7.47438e-07
2.76794e-06
8.03662e-05
-2.16495e-06
6.45397e-14
2.92141e-06
8.39649e-05
-2.2707e-06
-7.47438e-07
2.92141e-06
8.39649e-05
-2.2707e-06
-1.33154e-06
2.76794e-06
8.03662e-05
-2.16495e-06
-1.63975e-06
2.4802e-06
7.34598e-05
-1.9652e-06
-1.64166e-06
2.09453e-06
6.38333e-05
-1.69546e-06
1.64166e-06
5.2289e-05
-1.38191e-06
-1.38191e-06
2.09453e-06
1.63975e-06
6.38333e-05
-1.69546e-06
2.13831e-06
2.13831e-06
7.79538e-05
1.75299e-06
2.56462e-06
8.91321e-05
9.8781e-07
2.87924e-06
9.68952e-05
7.98074e-14
3.0463e-06
0.000100872
-9.8781e-07
3.0463e-06
0.000100872
-1.75299e-06
2.87924e-06
9.68952e-05
-2.13831e-06
2.56462e-06
8.91321e-05
-2.09453e-06
2.13831e-06
7.79538e-05
1.63975e-06
6.38333e-05
-1.69546e-06
2.4802e-06
1.33154e-06
7.34598e-05
-1.9652e-06
2.56462e-06
1.75299e-06
8.91321e-05
2.11768e-06
2.11768e-06
0.000101349
1.19747e-06
2.38542e-06
0.000109702
9.94815e-14
2.52711e-06
0.000113937
-1.19747e-06
2.52711e-06
0.000113937
-2.11768e-06
2.38542e-06
0.000109702
-2.56462e-06
2.11768e-06
0.000101349
-2.4802e-06
1.75299e-06
8.91321e-05
1.33154e-06
7.34598e-05
-1.9652e-06
2.76794e-06
7.47438e-07
8.03662e-05
-2.16495e-06
2.87924e-06
9.8781e-07
9.68952e-05
2.38542e-06
1.19747e-06
0.000109702
1.35106e-06
1.35106e-06
0.000118394
1.2306e-13
1.43219e-06
0.000122777
-1.35106e-06
1.43219e-06
0.000122777
-2.38542e-06
1.35106e-06
0.000118394
-2.87924e-06
1.19747e-06
0.000109702
-2.76794e-06
9.8781e-07
9.68952e-05
7.47438e-07
8.03662e-05
-2.16495e-06
2.92141e-06
8.18925e-14
8.39649e-05
-2.2707e-06
3.0463e-06
1.09309e-13
0.000100872
2.52711e-06
1.27035e-13
0.000113937
1.43219e-06
1.29413e-13
0.000122777
1.41016e-13
1.25674e-13
0.000127223
-1.43219e-06
1.28149e-13
0.000127223
-2.5271e-06
1.38579e-13
0.000122777
-3.0463e-06
1.46739e-13
0.000113937
-2.92141e-06
1.418e-13
0.000100872
1.22552e-13
8.39649e-05
-2.2707e-06
2.92141e-06
-7.47437e-07
8.39649e-05
-2.2707e-06
3.0463e-06
-9.8781e-07
0.000100872
2.52711e-06
-1.19747e-06
0.000113937
1.43219e-06
-1.35106e-06
0.000122777
1.43284e-13
-1.43219e-06
0.000127223
-1.43219e-06
-1.43219e-06
0.000127223
-2.5271e-06
-1.35106e-06
0.000122777
-3.0463e-06
-1.19747e-06
0.000113937
-2.92141e-06
-9.87809e-07
0.000100872
-7.47437e-07
8.39649e-05
-2.2707e-06
2.76794e-06
-1.33154e-06
8.03662e-05
-2.16495e-06
2.87924e-06
-1.75299e-06
9.68952e-05
2.38542e-06
-2.11768e-06
0.000109702
1.35106e-06
-2.38542e-06
0.000118394
1.29839e-13
-2.5271e-06
0.000122777
-1.35106e-06
-2.5271e-06
0.000122777
-2.38542e-06
-2.38542e-06
0.000118394
-2.87924e-06
-2.11768e-06
0.000109702
-2.76794e-06
-1.75299e-06
9.68952e-05
-1.33154e-06
8.03662e-05
-2.16495e-06
2.4802e-06
-1.63975e-06
7.34598e-05
-1.9652e-06
2.56462e-06
-2.13831e-06
8.91321e-05
2.11768e-06
-2.56462e-06
0.000101349
1.19747e-06
-2.87924e-06
0.000109702
1.10762e-13
-3.0463e-06
0.000113937
-1.19747e-06
-3.0463e-06
0.000113937
-2.11768e-06
-2.87924e-06
0.000109702
-2.56462e-06
-2.56462e-06
0.000101349
-2.4802e-06
-2.13831e-06
8.91321e-05
-1.63975e-06
7.34598e-05
-1.9652e-06
2.09453e-06
-1.64166e-06
6.38333e-05
-1.69546e-06
2.13831e-06
-2.09453e-06
7.79538e-05
1.75299e-06
-2.4802e-06
8.91321e-05
9.8781e-07
-2.76794e-06
9.68952e-05
9.5263e-14
-2.92141e-06
0.000100872
-9.8781e-07
-2.92141e-06
0.000100872
-1.75299e-06
-2.76794e-06
9.68952e-05
-2.13831e-06
-2.4802e-06
8.91321e-05
-2.09453e-06
-2.09453e-06
7.79538e-05
-1.64166e-06
6.38333e-05
-1.69546e-06
1.64166e-06
5.2289e-05
-1.38191e-06
-1.38191e-06
1.63975e-06
6.38333e-05
-1.69546e-06
1.33154e-06
7.34598e-05
-1.9652e-06
7.47438e-07
8.03662e-05
-2.16495e-06
8.27355e-14
8.39649e-05
-2.2707e-06
-7.47437e-07
8.39649e-05
-2.2707e-06
-1.33154e-06
8.03662e-05
-2.16495e-06
-1.63975e-06
7.34598e-05
-1.9652e-06
-1.64166e-06
6.38333e-05
-1.69546e-06
5.2289e-05
-1.38191e-06
-1.38191e-06
9.09063e-07
9.09063e-07
5.19879e-05
-7.58537e-07
-7.58537e-07
9.14147e-07
1.16313e-06
6.35971e-05
-9.31952e-07
7.46515e-07
1.38216e-06
7.33271e-05
-1.0818e-06
4.20597e-07
1.5474e-06
8.03382e-05
-1.19341e-06
6.49436e-14
1.63617e-06
8.4002e-05
-1.25273e-06
-4.20597e-07
1.63617e-06
8.4002e-05
-1.25273e-06
-7.46515e-07
1.5474e-06
8.03382e-05
-1.19341e-06
-9.14147e-07
1.38216e-06
7.33271e-05
-1.0818e-06
-9.09063e-07
1.16313e-06
6.35971e-05
-9.31952e-07
9.09063e-07
5.19879e-05
-7.58537e-07
-7.58537e-07
1.16313e-06
9.14147e-07
6.35971e-05
-9.31952e-07
1.19819e-06
1.19819e-06
7.78837e-05
9.89674e-07
1.44541e-06
8.92774e-05
5.6045e-07
1.63059e-06
9.72413e-05
9.51612e-14
1.72985e-06
0.000101338
-5.6045e-07
1.72985e-06
0.000101338
-9.89673e-07
1.63059e-06
9.72413e-05
-1.19819e-06
1.44541e-06
8.92774e-05
-1.16313e-06
1.19819e-06
7.78837e-05
9.14147e-07
6.35971e-05
-9.31952e-07
1.38216e-06
7.46515e-07
7.33271e-05
-1.0818e-06
1.44541e-06
9.89674e-07
8.92774e-05
1.20468e-06
1.20468e-06
0.00010183
6.85368e-07
1.36532e-06
0.000110487
1.09495e-13
1.45128e-06
0.000114901
-6.85368e-07
1.45128e-06
0.000114901
-1.20468e-06
1.36532e-06
0.000110487
-1.44541e-06
1.20468e-06
0.00010183
-1.38216e-06
9.89674e-07
8.92774e-05
7.46515e-07
7.33271e-05
-1.0818e-06
1.5474e-06
4.20597e-07
8.03382e-05
-1.19341e-06
1.63059e-06
5.6045e-07
9.72413e-05
1.36532e-06
6.85368e-07
0.000110487
7.78659e-07
7.78659e-07
0.000119568
1.11832e-13
8.28534e-07
0.000124178
-7.78658e-07
8.28534e-07
0.000124178
-1.36532e-06
7.78659e-07
0.000119568
-1.63059e-06
6.85368e-07
0.000110487
-1.5474e-06
5.6045e-07
9.72413e-05
4.20597e-07
8.03382e-05
-1.19341e-06
1.63617e-06
6.44913e-14
8.4002e-05
-1.25273e-06
1.72985e-06
8.01319e-14
0.000101338
1.45128e-06
1.08249e-13
0.000114901
8.28534e-07
1.33034e-13
0.000124178
1.0917e-13
1.43507e-13
0.00012888
-8.28534e-07
1.4083e-13
0.00012888
-1.45128e-06
1.31459e-13
0.000124178
-1.72985e-06
1.19288e-13
0.000114901
-1.63617e-06
1.06828e-13
0.000101338
9.64145e-14
8.4002e-05
-1.25273e-06
1.63617e-06
-4.20597e-07
8.4002e-05
-1.25273e-06
1.72985e-06
-5.6045e-07
0.000101338
1.45128e-06
-6.85368e-07
0.000114901
8.28534e-07
-7.78658e-07
0.000124178
1.06394e-13
-8.28534e-07
0.00012888
-8.28534e-07
-8.28534e-07
0.00012888
-1.45128e-06
-7.78658e-07
0.000124178
-1.72985e-06
-6.85368e-07
0.000114901
-1.63617e-06
-5.6045e-07
0.000101338
-4.20597e-07
8.4002e-05
-1.25273e-06
1.5474e-06
-7.46515e-07
8.03382e-05
-1.19341e-06
1.63059e-06
-9.89673e-07
9.72413e-05
1.36532e-06
-1.20468e-06
0.000110487
7.78659e-07
-1.36532e-06
0.000119568
1.05868e-13
-1.45128e-06
0.000124178
-7.78658e-07
-1.45128e-06
0.000124178
-1.36532e-06
-1.36532e-06
0.000119568
-1.63059e-06
-1.20468e-06
0.000110487
-1.5474e-06
-9.89673e-07
9.72413e-05
-7.46515e-07
8.03382e-05
-1.19341e-06
1.38216e-06
-9.14147e-07
7.33271e-05
-1.0818e-06
1.44541e-06
-1.19819e-06
8.92774e-05
1.20468e-06
-1.44541e-06
0.00010183
6.85368e-07
-1.63059e-06
0.000110487
1.06808e-13
-1.72985e-06
0.000114901
-6.85368e-07
-1.72985e-06
0.000114901
-1.20468e-06
-1.63059e-06
0.000110487
-1.44541e-06
-1.44541e-06
0.00010183
-1.38216e-06
-1.19819e-06
8.92774e-05
-9.14147e-07
7.33271e-05
-1.0818e-06
1.16313e-06
-9.09063e-07
6.35971e-05
-9.31952e-07
1.19819e-06
-1.16313e-06
7.78837e-05
9.89674e-07
-1.38216e-06
8.92774e-05
5.6045e-07
-1.5474e-06
9.72413e-05
1.0245e-13
-1.63617e-06
0.000101338
-5.6045e-07
-1.63617e-06
0.000101338
-9.89673e-07
-1.5474e-06
9.72413e-05
-1.19819e-06
-1.38216e-06
8.92774e-05
-1.16313e-06
-1.16313e-06
7.78837e-05
-9.09063e-07
6.35971e-05
-9.31952e-07
9.09063e-07
5.19879e-05
-7.58537e-07
-7.58537e-07
9.14147e-07
6.35971e-05
-9.31952e-07
7.46515e-07
7.33271e-05
-1.0818e-06
4.20597e-07
8.03382e-05
-1.19341e-06
8.52679e-14
8.4002e-05
-1.25273e-06
-4.20597e-07
8.4002e-05
-1.25273e-06
-7.46515e-07
8.03382e-05
-1.19341e-06
-9.14147e-07
7.33271e-05
-1.0818e-06
-9.09063e-07
6.35971e-05
-9.31952e-07
5.19879e-05
-7.58537e-07
-7.58537e-07
5.05602e-07
5.05602e-07
5.18187e-05
-4.21012e-07
-4.21012e-07
5.10414e-07
6.49444e-07
6.34612e-05
-5.18367e-07
4.18342e-07
7.74704e-07
7.32476e-05
-6.03089e-07
2.36301e-07
8.6984e-07
8.03168e-05
-6.66421e-07
6.83208e-14
9.21162e-07
8.40173e-05
-7.00153e-07
-2.363e-07
9.21162e-07
8.40173e-05
-7.00153e-07
-4.18341e-07
8.6984e-07
8.03168e-05
-6.66421e-07
-5.10414e-07
7.74704e-07
7.32476e-05
-6.03089e-07
-5.05602e-07
6.49444e-07
6.34612e-05
-5.18367e-07
5.05602e-07
5.18187e-05
-4.21012e-07
-4.21012e-07
6.49444e-07
5.10414e-07
6.34612e-05
-5.18367e-07
6.72617e-07
6.72618e-07
7.78374e-05
5.58268e-07
8.15592e-07
8.93508e-05
3.172e-07
9.23698e-07
9.74285e-05
1.03639e-13
9.81987e-07
0.000101595
-3.172e-07
9.81987e-07
0.000101595
-5.58268e-07
9.23698e-07
9.74285e-05
-6.72617e-07
8.15592e-07
8.93508e-05
-6.49444e-07
6.72618e-07
7.78374e-05
5.10414e-07
6.34612e-05
-5.18367e-07
7.74704e-07
4.18342e-07
7.32476e-05
-6.03089e-07
8.15592e-07
5.58268e-07
8.93508e-05
6.838e-07
6.838e-07
0.000102094
3.906e-07
7.78672e-07
0.000110925
1.07058e-13
8.29803e-07
0.000115444
-3.906e-07
8.29803e-07
0.000115444
-6.838e-07
7.78672e-07
0.000110925
-8.15591e-07
6.838e-07
0.000102094
-7.74704e-07
5.58268e-07
8.93508e-05
4.18342e-07
7.32476e-05
-6.03089e-07
8.6984e-07
2.363e-07
8.03168e-05
-6.66421e-07
9.23698e-07
3.172e-07
9.74285e-05
7.78672e-07
3.906e-07
0.000110925
4.46114e-07
4.46114e-07
0.000120233
8.20023e-14
4.76031e-07
0.000124978
-4.46113e-07
4.76031e-07
0.000124978
-7.78672e-07
4.46114e-07
0.000120233
-9.23698e-07
3.906e-07
0.000110925
-8.6984e-07
3.172e-07