/*--------------------------------*- C++ -*----------------------------------*\
| =========                 |                                                 |
| \\      /  F ield         | OpenFOAM: The Open Source CFD Toolbox           |
|  \\    /   O peration     | Version:  2412                                  |
|   \\  /    A nd           | Website:  www.openfoam.com                      |
|    \\/     M anipulation  |                                                 |
\*---------------------------------------------------------------------------*/
FoamFile
{
    version     2.0;
    format      ascii;
    arch        "LSB;label=32;scalar=64";
    class       volVectorField;
    location    "7.8";
    object      U;
}
// * * * * * * * * * * * * * * * * * * * * * * * * * * * * * * * * * * * * * //

dimensions      [0 1 -1 0 0 0 0];

internalField   nonuniform List<vector> 
15000
(
(0.00121142 0.00121142 0.0103944)
(0.000896096 0.00113435 0.0103459)
(0.000611362 0.00110823 0.0103051)
(0.000359214 0.00108231 0.0102784)
(0.000118032 0.00107038 0.0102658)
(-0.000118032 0.00107038 0.0102658)
(-0.000359214 0.00108231 0.0102784)
(-0.000611362 0.00110823 0.0103051)
(-0.000896096 0.00113435 0.0103459)
(-0.00121142 0.00121142 0.0103944)
(0.00113435 0.000896096 0.0103459)
(0.0008454 0.0008454 0.0102828)
(0.000579292 0.000808768 0.0102415)
(0.000338137 0.000782663 0.010219)
(0.000110987 0.000769985 0.0102095)
(-0.000110987 0.000769985 0.0102095)
(-0.000338137 0.000782663 0.010219)
(-0.000579292 0.000808768 0.0102415)
(-0.0008454 0.0008454 0.0102828)
(-0.00113435 0.000896096 0.0103459)
(0.00110823 0.000611362 0.0103051)
(0.000808768 0.000579292 0.0102415)
(0.000550071 0.000550071 0.010207)
(0.000319251 0.000528796 0.0101899)
(0.000104558 0.000518073 0.0101829)
(-0.000104558 0.000518073 0.0101829)
(-0.000319251 0.000528796 0.0101899)
(-0.000550071 0.000550071 0.010207)
(-0.000808768 0.000579292 0.0102415)
(-0.00110823 0.000611362 0.0103051)
(0.00108231 0.000359214 0.0102784)
(0.000782663 0.000338137 0.010219)
(0.000528796 0.000319251 0.0101899)
(0.000305461 0.000305461 0.010176)
(9.98344e-05 0.000298425 0.01017)
(-9.98344e-05 0.000298425 0.01017)
(-0.000305461 0.000305461 0.010176)
(-0.000528796 0.000319251 0.0101899)
(-0.000782663 0.000338137 0.010219)
(-0.00108231 0.000359214 0.0102784)
(0.00107038 0.000118032 0.0102658)
(0.000769985 0.000110987 0.0102095)
(0.000518073 0.000104558 0.0101829)
(0.000298425 9.98344e-05 0.01017)
(9.74131e-05 9.74131e-05 0.0101644)
(-9.74131e-05 9.74131e-05 0.0101644)
(-0.000298425 9.98344e-05 0.01017)
(-0.000518073 0.000104558 0.0101829)
(-0.000769985 0.000110987 0.0102095)
(-0.00107038 0.000118032 0.0102658)
(0.00107038 -0.000118032 0.0102658)
(0.000769985 -0.000110987 0.0102095)
(0.000518073 -0.000104558 0.0101829)
(0.000298425 -9.98344e-05 0.01017)
(9.74131e-05 -9.74131e-05 0.0101644)
(-9.74131e-05 -9.74131e-05 0.0101644)
(-0.000298425 -9.98344e-05 0.01017)
(-0.000518073 -0.000104558 0.0101829)
(-0.000769985 -0.000110987 0.0102095)
(-0.00107038 -0.000118032 0.0102658)
(0.00108231 -0.000359214 0.0102784)
(0.000782663 -0.000338137 0.010219)
(0.000528796 -0.000319251 0.0101899)
(0.000305461 -0.000305461 0.010176)
(9.98344e-05 -0.000298425 0.01017)
(-9.98344e-05 -0.000298425 0.01017)
(-0.000305461 -0.000305461 0.010176)
(-0.000528796 -0.000319251 0.0101899)
(-0.000782663 -0.000338137 0.010219)
(-0.00108231 -0.000359214 0.0102784)
(0.00110823 -0.000611362 0.0103051)
(0.000808768 -0.000579292 0.0102415)
(0.000550071 -0.000550071 0.010207)
(0.000319251 -0.000528796 0.0101899)
(0.000104558 -0.000518073 0.0101829)
(-0.000104558 -0.000518073 0.0101829)
(-0.000319251 -0.000528796 0.0101899)
(-0.000550071 -0.000550071 0.010207)
(-0.000808768 -0.000579292 0.0102415)
(-0.00110823 -0.000611362 0.0103051)
(0.00113435 -0.000896096 0.0103459)
(0.0008454 -0.0008454 0.0102828)
(0.000579292 -0.000808768 0.0102415)
(0.000338137 -0.000782663 0.010219)
(0.000110987 -0.000769985 0.0102095)
(-0.000110987 -0.000769985 0.0102095)
(-0.000338137 -0.000782663 0.010219)
(-0.000579292 -0.000808768 0.0102415)
(-0.0008454 -0.0008454 0.0102828)
(-0.00113435 -0.000896096 0.0103459)
(0.00121142 -0.00121142 0.0103944)
(0.000896096 -0.00113435 0.0103459)
(0.000611362 -0.00110823 0.0103051)
(0.000359214 -0.00108231 0.0102784)
(0.000118032 -0.00107038 0.0102658)
(-0.000118032 -0.00107038 0.0102658)
(-0.000359214 -0.00108231 0.0102784)
(-0.000611362 -0.00110823 0.0103051)
(-0.000896096 -0.00113435 0.0103459)
(-0.00121142 -0.00121142 0.0103944)
(0.000818367 0.000818367 0.0126741)
(0.000649267 0.00086759 0.0126504)
(0.000463311 0.000896628 0.0125619)
(0.000277427 0.000908097 0.0124746)
(9.19049e-05 0.000913134 0.0124247)
(-9.19049e-05 0.000913134 0.0124247)
(-0.000277427 0.000908097 0.0124746)
(-0.000463311 0.000896628 0.0125619)
(-0.000649267 0.00086759 0.0126504)
(-0.000818367 0.000818367 0.0126741)
(0.00086759 0.000649267 0.0126504)
(0.000674984 0.000674984 0.0124943)
(0.000473897 0.000682413 0.0123129)
(0.00027969 0.000681033 0.0121744)
(9.2213e-05 0.0006794 0.0121022)
(-9.2213e-05 0.0006794 0.0121022)
(-0.00027969 0.000681033 0.0121744)
(-0.000473897 0.000682413 0.0123129)
(-0.000674984 0.000674984 0.0124943)
(-0.00086759 0.000649267 0.0126504)
(0.000896628 0.000463311 0.0125619)
(0.000682413 0.000473897 0.0123129)
(0.000472267 0.000472267 0.0120822)
(0.000276023 0.00046708 0.0119207)
(9.06622e-05 0.000463776 0.0118395)
(-9.06622e-05 0.000463776 0.0118395)
(-0.000276023 0.00046708 0.0119207)
(-0.000472267 0.000472267 0.0120822)
(-0.000682413 0.000473897 0.0123129)
(-0.000896628 0.000463311 0.0125619)
(0.000908097 0.000277427 0.0124746)
(0.000681033 0.00027969 0.0121744)
(0.00046708 0.000276023 0.0119207)
(0.000271538 0.000271538 0.0117501)
(8.90011e-05 0.000268934 0.0116659)
(-8.90011e-05 0.000268934 0.0116659)
(-0.000271538 0.000271538 0.0117501)
(-0.00046708 0.000276023 0.0119207)
(-0.000681033 0.00027969 0.0121744)
(-0.000908097 0.000277427 0.0124746)
(0.000913134 9.19049e-05 0.0124247)
(0.0006794 9.2213e-05 0.0121022)
(0.000463776 9.06622e-05 0.0118395)
(0.000268934 8.90011e-05 0.0116659)
(8.80605e-05 8.80605e-05 0.0115807)
(-8.80605e-05 8.80605e-05 0.0115807)
(-0.000268934 8.90011e-05 0.0116659)
(-0.000463776 9.06622e-05 0.0118395)
(-0.0006794 9.2213e-05 0.0121022)
(-0.000913134 9.19049e-05 0.0124247)
(0.000913134 -9.19049e-05 0.0124247)
(0.0006794 -9.2213e-05 0.0121022)
(0.000463776 -9.06622e-05 0.0118395)
(0.000268934 -8.90011e-05 0.0116659)
(8.80605e-05 -8.80605e-05 0.0115807)
(-8.80605e-05 -8.80605e-05 0.0115807)
(-0.000268934 -8.90011e-05 0.0116659)
(-0.000463776 -9.06622e-05 0.0118395)
(-0.0006794 -9.2213e-05 0.0121022)
(-0.000913134 -9.19049e-05 0.0124247)
(0.000908097 -0.000277427 0.0124746)
(0.000681033 -0.00027969 0.0121744)
(0.00046708 -0.000276023 0.0119207)
(0.000271538 -0.000271538 0.0117501)
(8.90011e-05 -0.000268934 0.0116659)
(-8.90011e-05 -0.000268934 0.0116659)
(-0.000271538 -0.000271538 0.0117501)
(-0.00046708 -0.000276023 0.0119207)
(-0.000681033 -0.00027969 0.0121744)
(-0.000908097 -0.000277427 0.0124746)
(0.000896628 -0.000463311 0.0125619)
(0.000682413 -0.000473897 0.0123129)
(0.000472267 -0.000472267 0.0120822)
(0.000276023 -0.00046708 0.0119207)
(9.06622e-05 -0.000463776 0.0118395)
(-9.06622e-05 -0.000463776 0.0118395)
(-0.000276023 -0.00046708 0.0119207)
(-0.000472267 -0.000472267 0.0120822)
(-0.000682413 -0.000473897 0.0123129)
(-0.000896628 -0.000463311 0.0125619)
(0.00086759 -0.000649267 0.0126504)
(0.000674984 -0.000674984 0.0124943)
(0.000473897 -0.000682413 0.0123129)
(0.00027969 -0.000681033 0.0121744)
(9.2213e-05 -0.0006794 0.0121022)
(-9.2213e-05 -0.0006794 0.0121022)
(-0.00027969 -0.000681033 0.0121744)
(-0.000473897 -0.000682413 0.0123129)
(-0.000674984 -0.000674984 0.0124943)
(-0.00086759 -0.000649267 0.0126504)
(0.000818367 -0.000818367 0.0126741)
(0.000649267 -0.00086759 0.0126504)
(0.000463311 -0.000896628 0.0125619)
(0.000277427 -0.000908097 0.0124746)
(9.19049e-05 -0.000913134 0.0124247)
(-9.19049e-05 -0.000913134 0.0124247)
(-0.000277427 -0.000908097 0.0124746)
(-0.000463311 -0.000896628 0.0125619)
(-0.000649267 -0.00086759 0.0126504)
(-0.000818367 -0.000818367 0.0126741)
(0.000618786 0.000618786 0.0125238)
(0.000518643 0.000699718 0.012819)
(0.000391156 0.000754308 0.0129279)
(0.000242 0.000786046 0.0129483)
(8.15385e-05 0.000800993 0.0129446)
(-8.15385e-05 0.000800993 0.0129446)
(-0.000242 0.000786046 0.0129483)
(-0.000391156 0.000754308 0.0129279)
(-0.000518643 0.000699718 0.012819)
(-0.000618786 0.000618786 0.0125238)
(0.000699718 0.000518643 0.012819)
(0.000583195 0.000583195 0.0129472)
(0.000431913 0.000621013 0.0129099)
(0.0002641 0.000640336 0.0128363)
(8.86253e-05 0.000648684 0.0127879)
(-8.86253e-05 0.000648684 0.0127879)
(-0.0002641 0.000640336 0.0128363)
(-0.000431913 0.000621013 0.0129099)
(-0.000583195 0.000583195 0.0129472)
(-0.000699718 0.000518643 0.012819)
(0.000754308 0.000391156 0.0129279)
(0.000621013 0.000431913 0.0129099)
(0.000454535 0.000454535 0.0127721)
(0.000275657 0.000465273 0.0126417)
(9.2214e-05 0.000469611 0.0125688)
(-9.2214e-05 0.000469611 0.0125688)
(-0.000275657 0.000465273 0.0126417)
(-0.000454535 0.000454535 0.0127721)
(-0.000621013 0.000431913 0.0129099)
(-0.000754308 0.000391156 0.0129279)
(0.000786046 0.000242 0.0129483)
(0.000640336 0.0002641 0.0128363)
(0.000465273 0.000275657 0.0126417)
(0.000280929 0.000280929 0.0124834)
(9.382e-05 0.000282975 0.0123997)
(-9.382e-05 0.000282975 0.0123997)
(-0.000280929 0.000280929 0.0124834)
(-0.000465273 0.000275657 0.0126417)
(-0.000640336 0.0002641 0.0128363)
(-0.000786046 0.000242 0.0129483)
(0.000800993 8.15385e-05 0.0129446)
(0.000648684 8.86253e-05 0.0127879)
(0.000469611 9.2214e-05 0.0125688)
(0.000282975 9.382e-05 0.0123997)
(9.44308e-05 9.44308e-05 0.0123122)
(-9.44308e-05 9.44308e-05 0.0123122)
(-0.000282975 9.382e-05 0.0123997)
(-0.000469611 9.2214e-05 0.0125688)
(-0.000648684 8.86253e-05 0.0127879)
(-0.000800993 8.15385e-05 0.0129446)
(0.000800993 -8.15385e-05 0.0129446)
(0.000648684 -8.86253e-05 0.0127879)
(0.000469611 -9.2214e-05 0.0125688)
(0.000282975 -9.382e-05 0.0123997)
(9.44308e-05 -9.44308e-05 0.0123122)
(-9.44308e-05 -9.44308e-05 0.0123122)
(-0.000282975 -9.382e-05 0.0123997)
(-0.000469611 -9.2214e-05 0.0125688)
(-0.000648684 -8.86253e-05 0.0127879)
(-0.000800993 -8.15385e-05 0.0129446)
(0.000786046 -0.000242 0.0129483)
(0.000640336 -0.0002641 0.0128363)
(0.000465273 -0.000275657 0.0126417)
(0.000280929 -0.000280929 0.0124834)
(9.382e-05 -0.000282975 0.0123997)
(-9.382e-05 -0.000282975 0.0123997)
(-0.000280929 -0.000280929 0.0124834)
(-0.000465273 -0.000275657 0.0126417)
(-0.000640336 -0.0002641 0.0128363)
(-0.000786046 -0.000242 0.0129483)
(0.000754308 -0.000391156 0.0129279)
(0.000621013 -0.000431913 0.0129099)
(0.000454535 -0.000454535 0.0127721)
(0.000275657 -0.000465273 0.0126417)
(9.2214e-05 -0.000469611 0.0125688)
(-9.2214e-05 -0.000469611 0.0125688)
(-0.000275657 -0.000465273 0.0126417)
(-0.000454535 -0.000454535 0.0127721)
(-0.000621013 -0.000431913 0.0129099)
(-0.000754308 -0.000391156 0.0129279)
(0.000699718 -0.000518643 0.012819)
(0.000583195 -0.000583195 0.0129472)
(0.000431913 -0.000621013 0.0129099)
(0.0002641 -0.000640336 0.0128363)
(8.86253e-05 -0.000648684 0.0127879)
(-8.86253e-05 -0.000648684 0.0127879)
(-0.0002641 -0.000640336 0.0128363)
(-0.000431913 -0.000621013 0.0129099)
(-0.000583195 -0.000583195 0.0129472)
(-0.000699718 -0.000518643 0.012819)
(0.000618786 -0.000618786 0.0125238)
(0.000518643 -0.000699718 0.012819)
(0.000391156 -0.000754308 0.0129279)
(0.000242 -0.000786046 0.0129483)
(8.15385e-05 -0.000800993 0.0129446)
(-8.15385e-05 -0.000800993 0.0129446)
(-0.000242 -0.000786046 0.0129483)
(-0.000391156 -0.000754308 0.0129279)
(-0.000518643 -0.000699718 0.012819)
(-0.000618786 -0.000618786 0.0125238)
(0.000303858 0.000303858 0.0127512)
(0.000265859 0.00037003 0.0132109)
(0.00021058 0.000418083 0.0134382)
(0.000133853 0.000449856 0.0135314)
(4.57461e-05 0.00046531 0.0135613)
(-4.57461e-05 0.00046531 0.0135613)
(-0.000133853 0.000449856 0.0135314)
(-0.00021058 0.000418083 0.0134382)
(-0.000265859 0.00037003 0.0132109)
(-0.000303858 0.000303858 0.0127512)
(0.00037003 0.000265859 0.0132109)
(0.000325974 0.000325974 0.0135218)
(0.00025301 0.000367788 0.0135963)
(0.000159451 0.000393594 0.0135835)
(5.43215e-05 0.00040591 0.0135612)
(-5.43215e-05 0.00040591 0.0135612)
(-0.000159451 0.000393594 0.0135835)
(-0.00025301 0.000367788 0.0135963)
(-0.000325974 0.000325974 0.0135218)
(-0.00037003 0.000265859 0.0132109)
(0.000418083 0.00021058 0.0134382)
(0.000367788 0.00025301 0.0135963)
(0.000283039 0.000283039 0.0135532)
(0.000177388 0.000301433 0.013469)
(6.03123e-05 0.000310161 0.0134146)
(-6.03123e-05 0.000310161 0.0134146)
(-0.000177388 0.000301433 0.013469)
(-0.000283039 0.000283039 0.0135532)
(-0.000367788 0.00025301 0.0135963)
(-0.000418083 0.00021058 0.0134382)
(0.000449856 0.000133853 0.0135314)
(0.000393594 0.000159451 0.0135835)
(0.000301433 0.000177388 0.013469)
(0.000188391 0.000188391 0.0133467)
(6.39902e-05 0.000193604 0.0132766)
(-6.39902e-05 0.000193604 0.0132766)
(-0.000188391 0.000188391 0.0133467)
(-0.000301433 0.000177388 0.013469)
(-0.000393594 0.000159451 0.0135835)
(-0.000449856 0.000133853 0.0135314)
(0.00046531 4.57461e-05 0.0135613)
(0.00040591 5.43215e-05 0.0135612)
(0.000310161 6.03123e-05 0.0134146)
(0.000193604 6.39902e-05 0.0132766)
(6.57303e-05 6.57303e-05 0.0132007)
(-6.57303e-05 6.57303e-05 0.0132007)
(-0.000193604 6.39902e-05 0.0132766)
(-0.000310161 6.03123e-05 0.0134146)
(-0.00040591 5.43215e-05 0.0135612)
(-0.00046531 4.57461e-05 0.0135613)
(0.00046531 -4.57461e-05 0.0135613)
(0.00040591 -5.43215e-05 0.0135612)
(0.000310161 -6.03123e-05 0.0134146)
(0.000193604 -6.39902e-05 0.0132766)
(6.57303e-05 -6.57303e-05 0.0132007)
(-6.57303e-05 -6.57303e-05 0.0132007)
(-0.000193604 -6.39902e-05 0.0132766)
(-0.000310161 -6.03123e-05 0.0134146)
(-0.00040591 -5.43215e-05 0.0135612)
(-0.00046531 -4.57461e-05 0.0135613)
(0.000449856 -0.000133853 0.0135314)
(0.000393594 -0.000159451 0.0135835)
(0.000301433 -0.000177388 0.013469)
(0.000188391 -0.000188391 0.0133467)
(6.39902e-05 -0.000193604 0.0132766)
(-6.39902e-05 -0.000193604 0.0132766)
(-0.000188391 -0.000188391 0.0133467)
(-0.000301433 -0.000177388 0.013469)
(-0.000393594 -0.000159451 0.0135835)
(-0.000449856 -0.000133853 0.0135314)
(0.000418083 -0.00021058 0.0134382)
(0.000367788 -0.00025301 0.0135963)
(0.000283039 -0.000283039 0.0135532)
(0.000177388 -0.000301433 0.013469)
(6.03123e-05 -0.000310161 0.0134146)
(-6.03123e-05 -0.000310161 0.0134146)
(-0.000177388 -0.000301433 0.013469)
(-0.000283039 -0.000283039 0.0135532)
(-0.000367788 -0.00025301 0.0135963)
(-0.000418083 -0.00021058 0.0134382)
(0.00037003 -0.000265859 0.0132109)
(0.000325974 -0.000325974 0.0135218)
(0.00025301 -0.000367788 0.0135963)
(0.000159451 -0.000393594 0.0135835)
(5.43215e-05 -0.00040591 0.0135612)
(-5.43215e-05 -0.00040591 0.0135612)
(-0.000159451 -0.000393594 0.0135835)
(-0.00025301 -0.000367788 0.0135963)
(-0.000325974 -0.000325974 0.0135218)
(-0.00037003 -0.000265859 0.0132109)
(0.000303858 -0.000303858 0.0127512)
(0.000265859 -0.00037003 0.0132109)
(0.00021058 -0.000418083 0.0134382)
(0.000133853 -0.000449856 0.0135314)
(4.57461e-05 -0.00046531 0.0135613)
(-4.57461e-05 -0.00046531 0.0135613)
(-0.000133853 -0.000449856 0.0135314)
(-0.00021058 -0.000418083 0.0134382)
(-0.000265859 -0.00037003 0.0132109)
(-0.000303858 -0.000303858 0.0127512)
(0.000150677 0.000150677 0.0126607)
(0.00013508 0.000188292 0.0132219)
(0.000110746 0.000218207 0.0135317)
(7.17843e-05 0.000239216 0.0136811)
(2.47887e-05 0.000249696 0.0137391)
(-2.47886e-05 0.000249696 0.0137391)
(-7.17843e-05 0.000239216 0.0136811)
(-0.000110746 0.000218207 0.0135317)
(-0.00013508 0.000188292 0.0132219)
(-0.000150677 0.000150677 0.0126607)
(0.000188292 0.00013508 0.0132219)
(0.00017346 0.00017346 0.0136643)
(0.000139814 0.000202621 0.0138349)
(9.02175e-05 0.000222017 0.0138839)
(3.10959e-05 0.000231631 0.0138915)
(-3.10959e-05 0.000231631 0.0138915)
(-9.02175e-05 0.000222017 0.0138839)
(-0.000139814 0.000202621 0.0138349)
(-0.00017346 0.00017346 0.0136643)
(-0.000188292 0.00013508 0.0132219)
(0.000218207 0.000110746 0.0135317)
(0.000202621 0.000139814 0.0138349)
(0.000162474 0.000162474 0.0138924)
(0.000104496 0.000177449 0.0138705)
(3.59751e-05 0.000184842 0.0138458)
(-3.59751e-05 0.000184842 0.0138458)
(-0.000104496 0.000177449 0.0138705)
(-0.000162474 0.000162474 0.0138924)
(-0.000202621 0.000139814 0.0138349)
(-0.000218207 0.000110746 0.0135317)
(0.000239216 7.17843e-05 0.0136811)
(0.000222017 9.02175e-05 0.0138839)
(0.000177449 0.000104496 0.0138705)
(0.000113892 0.000113892 0.0138097)
(3.91793e-05 0.000118512 0.0137687)
(-3.91793e-05 0.000118512 0.0137687)
(-0.000113892 0.000113892 0.0138097)
(-0.000177449 0.000104496 0.0138705)
(-0.000222017 9.02175e-05 0.0138839)
(-0.000239216 7.17843e-05 0.0136811)
(0.000249696 2.47887e-05 0.0137391)
(0.000231631 3.10959e-05 0.0138915)
(0.000184842 3.59751e-05 0.0138458)
(0.000118512 3.91793e-05 0.0137687)
(4.07497e-05 4.07498e-05 0.0137214)
(-4.07497e-05 4.07498e-05 0.0137214)
(-0.000118512 3.91793e-05 0.0137687)
(-0.000184842 3.59751e-05 0.0138458)
(-0.000231631 3.10959e-05 0.0138915)
(-0.000249696 2.47886e-05 0.0137391)
(0.000249696 -2.47886e-05 0.0137391)
(0.000231631 -3.10959e-05 0.0138915)
(0.000184842 -3.59751e-05 0.0138458)
(0.000118512 -3.91793e-05 0.0137687)
(4.07498e-05 -4.07497e-05 0.0137214)
(-4.07497e-05 -4.07497e-05 0.0137214)
(-0.000118512 -3.91793e-05 0.0137687)
(-0.000184842 -3.59751e-05 0.0138458)
(-0.000231631 -3.10959e-05 0.0138915)
(-0.000249696 -2.47887e-05 0.0137391)
(0.000239216 -7.17843e-05 0.0136811)
(0.000222017 -9.02175e-05 0.0138839)
(0.000177449 -0.000104496 0.0138705)
(0.000113892 -0.000113892 0.0138097)
(3.91793e-05 -0.000118512 0.0137687)
(-3.91793e-05 -0.000118512 0.0137687)
(-0.000113892 -0.000113892 0.0138097)
(-0.000177449 -0.000104496 0.0138705)
(-0.000222017 -9.02175e-05 0.0138839)
(-0.000239216 -7.17842e-05 0.0136811)
(0.000218207 -0.000110746 0.0135317)
(0.000202621 -0.000139814 0.0138349)
(0.000162474 -0.000162474 0.0138924)
(0.000104496 -0.000177449 0.0138705)
(3.59751e-05 -0.000184842 0.0138458)
(-3.59751e-05 -0.000184842 0.0138458)
(-0.000104496 -0.000177449 0.0138705)
(-0.000162474 -0.000162474 0.0138924)
(-0.000202621 -0.000139814 0.0138349)
(-0.000218207 -0.000110746 0.0135317)
(0.000188292 -0.00013508 0.0132219)
(0.00017346 -0.00017346 0.0136643)
(0.000139814 -0.000202621 0.0138349)
(9.02175e-05 -0.000222017 0.0138839)
(3.10959e-05 -0.000231631 0.0138915)
(-3.10959e-05 -0.000231631 0.0138915)
(-9.02175e-05 -0.000222017 0.0138839)
(-0.000139814 -0.000202621 0.0138349)
(-0.00017346 -0.00017346 0.0136643)
(-0.000188292 -0.00013508 0.0132219)
(0.000150677 -0.000150677 0.0126607)
(0.00013508 -0.000188292 0.0132219)
(0.000110746 -0.000218207 0.0135317)
(7.17843e-05 -0.000239216 0.0136811)
(2.47886e-05 -0.000249696 0.0137391)
(-2.47887e-05 -0.000249696 0.0137391)
(-7.17842e-05 -0.000239216 0.0136811)
(-0.000110746 -0.000218207 0.0135317)
(-0.00013508 -0.000188292 0.0132219)
(-0.000150677 -0.000150677 0.0126607)
(5.9693e-05 5.9693e-05 0.0125936)
(5.62806e-05 7.92128e-05 0.0131891)
(4.8654e-05 9.58594e-05 0.0135329)
(3.24689e-05 0.000108223 0.0137084)
(1.13838e-05 0.000114551 0.0137803)
(-1.13838e-05 0.000114551 0.0137803)
(-3.24689e-05 0.000108223 0.0137084)
(-4.8654e-05 9.58594e-05 0.0135329)
(-5.62806e-05 7.92128e-05 0.0131891)
(-5.9693e-05 5.9693e-05 0.0125936)
(7.92128e-05 5.62806e-05 0.0131891)
(7.8061e-05 7.8061e-05 0.0136896)
(6.63321e-05 9.60161e-05 0.0139106)
(4.41893e-05 0.000108738 0.0139959)
(1.54688e-05 0.00011525 0.0140223)
(-1.54688e-05 0.00011525 0.0140223)
(-4.41893e-05 0.000108738 0.0139959)
(-6.63322e-05 9.60161e-05 0.0139106)
(-7.8061e-05 7.8061e-05 0.0136896)
(-7.92128e-05 5.62806e-05 0.0131891)
(9.58594e-05 4.8654e-05 0.0135329)
(9.60161e-05 6.63321e-05 0.0139106)
(8.12779e-05 8.12779e-05 0.0140296)
(5.401e-05 9.17458e-05 0.0140505)
(1.88837e-05 9.70736e-05 0.0140475)
(-1.88837e-05 9.70736e-05 0.0140475)
(-5.401e-05 9.17458e-05 0.0140505)
(-8.12779e-05 8.12779e-05 0.0140296)
(-9.60161e-05 6.63322e-05 0.0139106)
(-9.58594e-05 4.8654e-05 0.0135329)
(0.000108223 3.24689e-05 0.0137084)
(0.000108738 4.41893e-05 0.0139959)
(9.17458e-05 5.401e-05 0.0140505)
(6.0823e-05 6.0823e-05 0.0140358)
(2.12421e-05 6.4267e-05 0.0140178)
(-2.12421e-05 6.4267e-05 0.0140178)
(-6.0823e-05 6.0823e-05 0.0140358)
(-9.17458e-05 5.401e-05 0.0140505)
(-0.000108738 4.41893e-05 0.0139959)
(-0.000108223 3.24689e-05 0.0137084)
(0.000114551 1.13838e-05 0.0137803)
(0.00011525 1.54688e-05 0.0140223)
(9.70736e-05 1.88837e-05 0.0140475)
(6.4267e-05 2.12421e-05 0.0140178)
(2.24297e-05 2.24297e-05 0.0139941)
(-2.24297e-05 2.24297e-05 0.0139941)
(-6.4267e-05 2.12421e-05 0.0140178)
(-9.70736e-05 1.88837e-05 0.0140475)
(-0.00011525 1.54688e-05 0.0140223)
(-0.000114551 1.13838e-05 0.0137803)
(0.000114551 -1.13838e-05 0.0137803)
(0.00011525 -1.54688e-05 0.0140223)
(9.70736e-05 -1.88837e-05 0.0140475)
(6.4267e-05 -2.12421e-05 0.0140178)
(2.24297e-05 -2.24297e-05 0.0139941)
(-2.24297e-05 -2.24297e-05 0.0139941)
(-6.4267e-05 -2.12421e-05 0.0140178)
(-9.70736e-05 -1.88837e-05 0.0140475)
(-0.00011525 -1.54688e-05 0.0140223)
(-0.000114551 -1.13838e-05 0.0137803)
(0.000108223 -3.24689e-05 0.0137084)
(0.000108738 -4.41893e-05 0.0139959)
(9.17458e-05 -5.401e-05 0.0140505)
(6.0823e-05 -6.0823e-05 0.0140358)
(2.12421e-05 -6.4267e-05 0.0140178)
(-2.12421e-05 -6.4267e-05 0.0140178)
(-6.0823e-05 -6.0823e-05 0.0140358)
(-9.17458e-05 -5.401e-05 0.0140505)
(-0.000108738 -4.41893e-05 0.0139959)
(-0.000108223 -3.24689e-05 0.0137084)
(9.58594e-05 -4.8654e-05 0.0135329)
(9.60161e-05 -6.63322e-05 0.0139106)
(8.12779e-05 -8.12779e-05 0.0140296)
(5.401e-05 -9.17458e-05 0.0140505)
(1.88837e-05 -9.70736e-05 0.0140475)
(-1.88837e-05 -9.70736e-05 0.0140475)
(-5.401e-05 -9.17458e-05 0.0140505)
(-8.12779e-05 -8.12779e-05 0.0140296)
(-9.60161e-05 -6.63321e-05 0.0139106)
(-9.58594e-05 -4.8654e-05 0.0135329)
(7.92128e-05 -5.62806e-05 0.0131891)
(7.8061e-05 -7.8061e-05 0.0136896)
(6.63322e-05 -9.60161e-05 0.0139106)
(4.41893e-05 -0.000108738 0.0139959)
(1.54688e-05 -0.00011525 0.0140223)
(-1.54688e-05 -0.00011525 0.0140223)
(-4.41893e-05 -0.000108738 0.0139959)
(-6.63321e-05 -9.60161e-05 0.0139106)
(-7.8061e-05 -7.8061e-05 0.0136896)
(-7.92128e-05 -5.62806e-05 0.0131891)
(5.9693e-05 -5.9693e-05 0.0125936)
(5.62806e-05 -7.92128e-05 0.0131891)
(4.8654e-05 -9.58594e-05 0.0135329)
(3.24689e-05 -0.000108223 0.0137084)
(1.13838e-05 -0.000114551 0.0137803)
(-1.13838e-05 -0.000114551 0.0137803)
(-3.24689e-05 -0.000108223 0.0137084)
(-4.8654e-05 -9.58594e-05 0.0135329)
(-5.62806e-05 -7.92128e-05 0.0131891)
(-5.96931e-05 -5.96931e-05 0.0125936)
(1.95984e-05 1.95984e-05 0.0125568)
(1.96349e-05 2.78872e-05 0.0131628)
(1.80412e-05 3.55046e-05 0.0135198)
(1.24221e-05 4.14882e-05 0.0137068)
(4.43245e-06 4.4628e-05 0.0137852)
(-4.43244e-06 4.4628e-05 0.0137852)
(-1.24221e-05 4.14882e-05 0.0137068)
(-1.80412e-05 3.55046e-05 0.0135198)
(-1.96349e-05 2.78872e-05 0.0131628)
(-1.95984e-05 1.95984e-05 0.0125568)
(2.78872e-05 1.96349e-05 0.0131628)
(2.98051e-05 2.98051e-05 0.0136871)
(2.68937e-05 3.88889e-05 0.0139324)
(1.85397e-05 4.57114e-05 0.014037)
(6.60013e-06 4.93036e-05 0.014074)
(-6.60013e-06 4.93036e-05 0.014074)
(-1.85397e-05 4.57114e-05 0.014037)
(-2.68937e-05 3.88889e-05 0.0139324)
(-2.98051e-05 2.98051e-05 0.0136871)
(-2.78872e-05 1.96349e-05 0.0131628)
(3.55046e-05 1.80412e-05 0.0135198)
(3.88889e-05 2.68937e-05 0.0139324)
(3.49584e-05 3.49584e-05 0.0140849)
(2.4044e-05 4.09101e-05 0.014131)
(8.54345e-06 4.40189e-05 0.0141413)
(-8.54345e-06 4.40189e-05 0.0141413)
(-2.4044e-05 4.09101e-05 0.014131)
(-3.49584e-05 3.49584e-05 0.0140849)
(-3.88889e-05 2.68937e-05 0.0139324)
(-3.55046e-05 1.80412e-05 0.0135198)
(4.14882e-05 1.24221e-05 0.0137068)
(4.57114e-05 1.85397e-05 0.014037)
(4.09101e-05 2.4044e-05 0.014131)
(2.80501e-05 2.80501e-05 0.014145)
(9.94932e-06 3.0125e-05 0.0141419)
(-9.94932e-06 3.0125e-05 0.0141419)
(-2.80501e-05 2.80501e-05 0.014145)
(-4.09101e-05 2.4044e-05 0.014131)
(-4.57114e-05 1.85397e-05 0.014037)
(-4.14882e-05 1.24221e-05 0.0137068)
(4.4628e-05 4.43244e-06 0.0137852)
(4.93036e-05 6.60013e-06 0.014074)
(4.40189e-05 8.54345e-06 0.0141413)
(3.0125e-05 9.94932e-06 0.0141419)
(1.06744e-05 1.06744e-05 0.0141337)
(-1.06744e-05 1.06744e-05 0.0141337)
(-3.0125e-05 9.94933e-06 0.0141419)
(-4.40189e-05 8.54345e-06 0.0141413)
(-4.93036e-05 6.60013e-06 0.014074)
(-4.4628e-05 4.43245e-06 0.0137852)
(4.4628e-05 -4.43245e-06 0.0137852)
(4.93036e-05 -6.60013e-06 0.014074)
(4.40189e-05 -8.54345e-06 0.0141413)
(3.0125e-05 -9.94932e-06 0.0141419)
(1.06744e-05 -1.06744e-05 0.0141337)
(-1.06744e-05 -1.06744e-05 0.0141337)
(-3.0125e-05 -9.94932e-06 0.0141419)
(-4.40189e-05 -8.54344e-06 0.0141413)
(-4.93036e-05 -6.60013e-06 0.014074)
(-4.4628e-05 -4.43244e-06 0.0137852)
(4.14882e-05 -1.24221e-05 0.0137068)
(4.57114e-05 -1.85397e-05 0.014037)
(4.09101e-05 -2.4044e-05 0.014131)
(2.80501e-05 -2.80501e-05 0.014145)
(9.94932e-06 -3.0125e-05 0.0141419)
(-9.94932e-06 -3.0125e-05 0.0141419)
(-2.80501e-05 -2.80501e-05 0.014145)
(-4.09101e-05 -2.4044e-05 0.014131)
(-4.57114e-05 -1.85397e-05 0.014037)
(-4.14882e-05 -1.24221e-05 0.0137068)
(3.55046e-05 -1.80412e-05 0.0135198)
(3.88889e-05 -2.68937e-05 0.0139324)
(3.49584e-05 -3.49584e-05 0.0140849)
(2.4044e-05 -4.09101e-05 0.014131)
(8.54345e-06 -4.40189e-05 0.0141413)
(-8.54345e-06 -4.40189e-05 0.0141413)
(-2.4044e-05 -4.09101e-05 0.014131)
(-3.49584e-05 -3.49584e-05 0.0140849)
(-3.88889e-05 -2.68937e-05 0.0139324)
(-3.55046e-05 -1.80412e-05 0.0135198)
(2.78872e-05 -1.96349e-05 0.0131628)
(2.98051e-05 -2.98051e-05 0.0136871)
(2.68937e-05 -3.88889e-05 0.0139324)
(1.85397e-05 -4.57114e-05 0.014037)
(6.60013e-06 -4.93036e-05 0.014074)
(-6.60013e-06 -4.93036e-05 0.014074)
(-1.85397e-05 -4.57114e-05 0.014037)
(-2.68937e-05 -3.88889e-05 0.0139324)
(-2.98051e-05 -2.98051e-05 0.0136871)
(-2.78872e-05 -1.96349e-05 0.0131628)
(1.95984e-05 -1.95984e-05 0.0125568)
(1.96349e-05 -2.78872e-05 0.0131628)
(1.80412e-05 -3.55046e-05 0.0135198)
(1.24221e-05 -4.14882e-05 0.0137068)
(4.43244e-06 -4.4628e-05 0.0137852)
(-4.43245e-06 -4.4628e-05 0.0137852)
(-1.24221e-05 -4.14882e-05 0.0137068)
(-1.80412e-05 -3.55046e-05 0.0135198)
(-1.96349e-05 -2.78872e-05 0.0131628)
(-1.95984e-05 -1.95984e-05 0.0125568)
(5.36536e-06 5.36536e-06 0.0125386)
(5.89476e-06 8.43082e-06 0.0131464)
(5.87809e-06 1.14428e-05 0.0135074)
(4.20711e-06 1.39357e-05 0.0136985)
(1.53466e-06 1.52726e-05 0.0137795)
(-1.53466e-06 1.52726e-05 0.0137795)
(-4.20711e-06 1.39357e-05 0.0136985)
(-5.87809e-06 1.14428e-05 0.0135074)
(-5.89476e-06 8.43081e-06 0.0131464)
(-5.36536e-06 5.36536e-06 0.0125386)
(8.43082e-06 5.89476e-06 0.0131464)
(1.00203e-05 1.00203e-05 0.0136785)
(9.69456e-06 1.39643e-05 0.0139337)
(6.93564e-06 1.70712e-05 0.0140471)
(2.51455e-06 1.87446e-05 0.0140891)
(-2.51454e-06 1.87446e-05 0.0140891)
(-6.93564e-06 1.70712e-05 0.0140471)
(-9.69457e-06 1.39643e-05 0.0139337)
(-1.00203e-05 1.00203e-05 0.0136785)
(-8.43081e-06 5.89476e-06 0.0131464)
(1.14428e-05 5.87809e-06 0.0135074)
(1.39643e-05 9.69456e-06 0.0139337)
(1.33915e-05 1.33915e-05 0.0141017)
(9.53792e-06 1.62389e-05 0.0141606)
(3.44461e-06 1.77571e-05 0.0141778)
(-3.4446e-06 1.77571e-05 0.0141778)
(-9.53791e-06 1.62389e-05 0.0141606)
(-1.33915e-05 1.33915e-05 0.0141017)
(-1.39643e-05 9.69457e-06 0.0139337)
(-1.14428e-05 5.8781e-06 0.0135074)
(1.39357e-05 4.20711e-06 0.0136985)
(1.70712e-05 6.93564e-06 0.0140471)
(1.62389e-05 9.53792e-06 0.0141606)
(1.15092e-05 1.15092e-05 0.0141897)
(4.1443e-06 1.25505e-05 0.0141947)
(-4.1443e-06 1.25505e-05 0.0141947)
(-1.15092e-05 1.15092e-05 0.0141897)
(-1.62389e-05 9.53791e-06 0.0141606)
(-1.70712e-05 6.93564e-06 0.0140471)
(-1.39357e-05 4.20711e-06 0.0136985)
(1.52726e-05 1.53466e-06 0.0137795)
(1.87446e-05 2.51455e-06 0.0140891)
(1.77571e-05 3.44461e-06 0.0141778)
(1.25505e-05 4.1443e-06 0.0141947)
(4.51225e-06 4.51225e-06 0.0141951)
(-4.51224e-06 4.51225e-06 0.0141951)
(-1.25505e-05 4.1443e-06 0.0141947)
(-1.77571e-05 3.44461e-06 0.0141778)
(-1.87446e-05 2.51455e-06 0.0140891)
(-1.52726e-05 1.53466e-06 0.0137795)
(1.52726e-05 -1.53466e-06 0.0137795)
(1.87446e-05 -2.51454e-06 0.0140891)
(1.77571e-05 -3.4446e-06 0.0141778)
(1.25505e-05 -4.1443e-06 0.0141947)
(4.51225e-06 -4.51224e-06 0.0141951)
(-4.51224e-06 -4.51224e-06 0.0141951)
(-1.25505e-05 -4.1443e-06 0.0141947)
(-1.77571e-05 -3.4446e-06 0.0141778)
(-1.87446e-05 -2.51454e-06 0.0140891)
(-1.52726e-05 -1.53466e-06 0.0137795)
(1.39357e-05 -4.20711e-06 0.0136985)
(1.70712e-05 -6.93564e-06 0.0140471)
(1.62389e-05 -9.53791e-06 0.0141606)
(1.15092e-05 -1.15092e-05 0.0141897)
(4.1443e-06 -1.25505e-05 0.0141947)
(-4.1443e-06 -1.25505e-05 0.0141947)
(-1.15092e-05 -1.15092e-05 0.0141897)
(-1.62389e-05 -9.53791e-06 0.0141606)
(-1.70712e-05 -6.93564e-06 0.0140471)
(-1.39357e-05 -4.20711e-06 0.0136985)
(1.14428e-05 -5.8781e-06 0.0135074)
(1.39643e-05 -9.69456e-06 0.0139337)
(1.33915e-05 -1.33915e-05 0.0141017)
(9.53791e-06 -1.62389e-05 0.0141606)
(3.44461e-06 -1.77571e-05 0.0141778)
(-3.4446e-06 -1.77571e-05 0.0141778)
(-9.53791e-06 -1.62389e-05 0.0141606)
(-1.33915e-05 -1.33915e-05 0.0141017)
(-1.39643e-05 -9.69455e-06 0.0139337)
(-1.14428e-05 -5.87809e-06 0.0135074)
(8.43081e-06 -5.89476e-06 0.0131464)
(1.00203e-05 -1.00203e-05 0.0136785)
(9.69457e-06 -1.39643e-05 0.0139337)
(6.93564e-06 -1.70712e-05 0.0140471)
(2.51455e-06 -1.87446e-05 0.0140891)
(-2.51455e-06 -1.87446e-05 0.0140891)
(-6.93564e-06 -1.70712e-05 0.0140471)
(-9.69455e-06 -1.39643e-05 0.0139337)
(-1.00203e-05 -1.00203e-05 0.0136785)
(-8.43082e-06 -5.89476e-06 0.0131464)
(5.36536e-06 -5.36536e-06 0.0125386)
(5.89476e-06 -8.43081e-06 0.0131464)
(5.87809e-06 -1.14428e-05 0.0135074)
(4.20711e-06 -1.39357e-05 0.0136985)
(1.53466e-06 -1.52726e-05 0.0137795)
(-1.53467e-06 -1.52726e-05 0.0137795)
(-4.20711e-06 -1.39357e-05 0.0136985)