/*--------------------------------*- C++ -*----------------------------------*\
| =========                 |                                                 |
| \\      /  F ield         | OpenFOAM: The Open Source CFD Toolbox           |
|  \\    /   O peration     | Version:  2412                                  |
|   \\  /    A nd           | Website:  www.openfoam.com                      |
|    \\/     M anipulation  |                                                 |
\*---------------------------------------------------------------------------*/
FoamFile
{
    version     2.0;
    format      ascii;
    arch        "LSB;label=32;scalar=64";
    class       surfaceScalarField;
    location    "4.5";
    object      phi;
}
// * * * * * * * * * * * * * * * * * * * * * * * * * * * * * * * * * * * * * //

dimensions      [0 3 -1 0 0 0 0];

oriented        oriented;

internalField   nonuniform List<scalar> 
43700
(
1.83502e-07
1.83502e-07
5.49471e-07
-2.23228e-07
-2.23228e-07
1.3568e-07
1.628e-07
5.93476e-07
-1.9907e-07
8.98097e-08
1.49478e-07
6.24728e-07
-1.88905e-07
4.45435e-08
1.40588e-07
6.44772e-07
-1.80381e-07
1.04178e-16
1.36308e-07
6.54614e-07
-1.76449e-07
-4.45435e-08
1.36308e-07
6.54614e-07
-1.76449e-07
-8.98097e-08
1.40588e-07
6.44772e-07
-1.80381e-07
-1.3568e-07
1.49478e-07
6.24728e-07
-1.88905e-07
-1.83502e-07
1.628e-07
5.93476e-07
-1.9907e-07
1.83502e-07
5.49471e-07
-2.23228e-07
-2.23228e-07
1.628e-07
1.3568e-07
5.93476e-07
-1.9907e-07
1.20913e-07
1.20913e-07
6.29617e-07
7.9542e-08
1.09707e-07
6.54833e-07
3.93423e-08
1.02226e-07
6.71057e-07
1.01067e-15
9.85682e-08
6.79054e-07
-3.93423e-08
9.85682e-08
6.79054e-07
-7.9542e-08
1.02226e-07
6.71057e-07
-1.20913e-07
1.09707e-07
6.54833e-07
-1.628e-07
1.20913e-07
6.29617e-07
1.3568e-07
5.93476e-07
-1.9907e-07
1.49478e-07
8.98097e-08
6.24728e-07
-1.88905e-07
1.09707e-07
7.9542e-08
6.54833e-07
7.1656e-08
7.1656e-08
6.75975e-07
3.53218e-08
6.63901e-08
6.89733e-07
3.94042e-16
6.3803e-08
6.96565e-07
-3.53218e-08
6.3803e-08
6.96565e-07
-7.1656e-08
6.63901e-08
6.89733e-07
-1.09707e-07
7.1656e-08
6.75975e-07
-1.49478e-07
7.9542e-08
6.54833e-07
8.98097e-08
6.24728e-07
-1.88905e-07
1.40588e-07
4.45435e-08
6.44772e-07
-1.80381e-07
1.02226e-07
3.93423e-08
6.71057e-07
6.63901e-08
3.53218e-08
6.89733e-07
3.26275e-08
3.26275e-08
7.02028e-07
-3.53951e-16
3.13003e-08
7.08172e-07
-3.26275e-08
3.13003e-08
7.08172e-07
-6.63901e-08
3.26275e-08
7.02028e-07
-1.02226e-07
3.53218e-08
6.89733e-07
-1.40588e-07
3.93423e-08
6.71057e-07
4.45435e-08
6.44772e-07
-1.80381e-07
1.36308e-07
2.96538e-16
6.54614e-07
-1.76449e-07
9.85682e-08
-2.97084e-16
6.79054e-07
6.3803e-08
-1.48751e-16
6.96565e-07
3.13003e-08
7.56198e-17
7.08172e-07
-9.64611e-17
-1.71883e-16
7.13993e-07
-3.13003e-08
3.40088e-16
7.13993e-07
-6.3803e-08
7.65274e-16
7.08172e-07
-9.85682e-08
2.62587e-16
6.96565e-07
-1.36308e-07
-3.94953e-16
6.79054e-07
1.69201e-16
6.54614e-07
-1.76449e-07
1.36308e-07
-4.45435e-08
6.54614e-07
-1.76449e-07
9.85682e-08
-3.93423e-08
6.79054e-07
6.3803e-08
-3.53218e-08
6.96565e-07
3.13003e-08
-3.26275e-08
7.08172e-07
5.0185e-16
-3.13003e-08
7.13993e-07
-3.13003e-08
-3.13003e-08
7.13993e-07
-6.3803e-08
-3.26275e-08
7.08172e-07
-9.85682e-08
-3.53218e-08
6.96565e-07
-1.36308e-07
-3.93423e-08
6.79054e-07
-4.45435e-08
6.54614e-07
-1.76449e-07
1.40588e-07
-8.98097e-08
6.44772e-07
-1.80381e-07
1.02226e-07
-7.9542e-08
6.71057e-07
6.63901e-08
-7.1656e-08
6.89733e-07
3.26275e-08
-6.63901e-08
7.02028e-07
2.27723e-16
-6.3803e-08
7.08172e-07
-3.26275e-08
-6.3803e-08
7.08172e-07
-6.63901e-08
-6.63901e-08
7.02028e-07
-1.02226e-07
-7.1656e-08
6.89733e-07
-1.40588e-07
-7.9542e-08
6.71057e-07
-8.98097e-08
6.44772e-07
-1.80381e-07
1.49478e-07
-1.3568e-07
6.24728e-07
-1.88905e-07
1.09707e-07
-1.20913e-07
6.54833e-07
7.1656e-08
-1.09707e-07
6.75975e-07
3.53218e-08
-1.02226e-07
6.89733e-07
-2.58679e-16
-9.85682e-08
6.96565e-07
-3.53218e-08
-9.85682e-08
6.96565e-07
-7.1656e-08
-1.02226e-07
6.89733e-07
-1.09707e-07
-1.09707e-07
6.75975e-07
-1.49478e-07
-1.20913e-07
6.54833e-07
-1.3568e-07
6.24728e-07
-1.88905e-07
1.628e-07
-1.83502e-07
5.93476e-07
-1.9907e-07
1.20913e-07
-1.628e-07
6.29617e-07
7.9542e-08
-1.49478e-07
6.54833e-07
3.93423e-08
-1.40588e-07
6.71057e-07
-4.45581e-16
-1.36308e-07
6.79054e-07
-3.93423e-08
-1.36308e-07
6.79054e-07
-7.9542e-08
-1.40588e-07
6.71057e-07
-1.20913e-07
-1.49478e-07
6.54833e-07
-1.628e-07
-1.628e-07
6.29617e-07
-1.83502e-07
5.93476e-07
-1.9907e-07
1.83502e-07
5.49471e-07
-2.23228e-07
-2.23228e-07
1.3568e-07
5.93476e-07
-1.9907e-07
8.98097e-08
6.24728e-07
-1.88905e-07
4.45435e-08
6.44772e-07
-1.80381e-07
6.60058e-16
6.54614e-07
-1.76449e-07
-4.45435e-08
6.54614e-07
-1.76449e-07
-8.98097e-08
6.44772e-07
-1.80381e-07
-1.3568e-07
6.24728e-07
-1.88905e-07
-1.83502e-07
5.93476e-07
-1.9907e-07
5.49471e-07
-2.23228e-07
-2.23228e-07
1.02881e-07
1.02881e-07
5.8179e-07
-1.19041e-07
-1.19041e-07
8.05878e-08
1.00613e-07
6.33262e-07
-1.18106e-07
5.51084e-08
9.83058e-08
6.68823e-07
-1.16921e-07
2.78776e-08
9.63027e-08
6.91109e-07
-1.15409e-07
-2.24358e-16
9.5355e-08
7.01908e-07
-1.14772e-07
-2.78776e-08
9.5355e-08
7.01908e-07
-1.14772e-07
-5.51084e-08
9.63027e-08
6.91109e-07
-1.15409e-07
-8.05878e-08
9.83058e-08
6.68823e-07
-1.16921e-07
-1.02881e-07
1.00613e-07
6.33262e-07
-1.18106e-07
1.02881e-07
5.8179e-07
-1.19041e-07
-1.19041e-07
1.00613e-07
8.05878e-08
6.33262e-07
-1.18106e-07
7.80688e-08
7.80688e-08
6.74704e-07
5.30999e-08
7.573e-08
7.02378e-07
2.6808e-08
7.39332e-08
7.19719e-07
8.97922e-16
7.30517e-08
7.28166e-07
-2.6808e-08
7.30517e-08
7.28166e-07
-5.30998e-08
7.39332e-08
7.19719e-07
-7.80688e-08
7.573e-08
7.02378e-07
-1.00613e-07
7.80688e-08
6.74704e-07
8.05878e-08
6.33262e-07
-1.18106e-07
9.83058e-08
5.51084e-08
6.68823e-07
-1.16921e-07
7.573e-08
5.30999e-08
7.02378e-07
5.13212e-08
5.13212e-08
7.24792e-07
2.58877e-08
5.00297e-08
7.3907e-07
6.61427e-16
4.93904e-08
7.46114e-07
-2.58877e-08
4.93904e-08
7.46114e-07
-5.13212e-08
5.00297e-08
7.3907e-07
-7.573e-08
5.13212e-08
7.24792e-07
-9.83058e-08
5.30999e-08
7.02378e-07
5.51084e-08
6.68823e-07
-1.16921e-07
9.63027e-08
2.78776e-08
6.91109e-07
-1.15409e-07
7.39332e-08
2.6808e-08
7.19719e-07
5.00297e-08
2.58877e-08
7.3907e-07
2.52309e-08
2.52309e-08
7.51626e-07
4.46939e-16
2.49039e-08
7.5789e-07
-2.52309e-08
2.49039e-08
7.5789e-07
-5.00297e-08
2.52309e-08
7.51626e-07
-7.39332e-08
2.58877e-08
7.3907e-07
-9.63027e-08
2.6808e-08
7.19719e-07
2.78776e-08
6.91109e-07
-1.15409e-07
9.5355e-08
-7.36073e-16
7.01908e-07
-1.14772e-07
7.30517e-08
6.2392e-16
7.28166e-07
4.93904e-08
7.88692e-16
7.46114e-07
2.49039e-08
4.17159e-16
7.5789e-07
6.8005e-16
6.42087e-16
7.63801e-07
-2.49039e-08
1.15709e-15
7.63801e-07
-4.93904e-08
1.33824e-15
7.5789e-07
-7.30517e-08
8.03177e-16
7.46114e-07
-9.5355e-08
-6.5523e-16
7.28166e-07
-1.13102e-15
7.01908e-07
-1.14772e-07
9.5355e-08
-2.78776e-08
7.01908e-07
-1.14772e-07
7.30517e-08
-2.6808e-08
7.28166e-07
4.93904e-08
-2.58877e-08
7.46114e-07
2.49039e-08
-2.52309e-08
7.5789e-07
1.23129e-15
-2.49039e-08
7.63801e-07
-2.49039e-08
-2.49039e-08
7.63801e-07
-4.93904e-08
-2.52309e-08
7.5789e-07
-7.30517e-08
-2.58877e-08
7.46114e-07
-9.5355e-08
-2.6808e-08
7.28166e-07
-2.78776e-08
7.01908e-07
-1.14772e-07
9.63027e-08
-5.51084e-08
6.91109e-07
-1.15409e-07
7.39332e-08
-5.30998e-08
7.19719e-07
5.00297e-08
-5.13212e-08
7.3907e-07
2.52309e-08
-5.00297e-08
7.51626e-07
1.34323e-15
-4.93904e-08
7.5789e-07
-2.52309e-08
-4.93904e-08
7.5789e-07
-5.00297e-08
-5.00297e-08
7.51626e-07
-7.39332e-08
-5.13212e-08
7.3907e-07
-9.63027e-08
-5.30999e-08
7.19719e-07
-5.51084e-08
6.91109e-07
-1.15409e-07
9.83058e-08
-8.05878e-08
6.68823e-07
-1.16921e-07
7.573e-08
-7.80688e-08
7.02378e-07
5.13212e-08
-7.573e-08
7.24792e-07
2.58877e-08
-7.39332e-08
7.3907e-07
4.7188e-16
-7.30517e-08
7.46114e-07
-2.58877e-08
-7.30517e-08
7.46114e-07
-5.13212e-08
-7.39332e-08
7.3907e-07
-7.573e-08
-7.573e-08
7.24792e-07
-9.83058e-08
-7.80688e-08
7.02378e-07
-8.05878e-08
6.68823e-07
-1.16921e-07
1.00613e-07
-1.02881e-07
6.33262e-07
-1.18106e-07
7.80688e-08
-1.00613e-07
6.74704e-07
5.30999e-08
-9.83058e-08
7.02378e-07
2.6808e-08
-9.63027e-08
7.19719e-07
-1.54209e-15
-9.5355e-08
7.28166e-07
-2.6808e-08
-9.5355e-08
7.28166e-07
-5.30999e-08
-9.63027e-08
7.19719e-07
-7.80688e-08
-9.83058e-08
7.02378e-07
-1.00613e-07
-1.00613e-07
6.74704e-07
-1.02881e-07
6.33262e-07
-1.18106e-07
1.02881e-07
5.8179e-07
-1.19041e-07
-1.19041e-07
8.05878e-08
6.33262e-07
-1.18106e-07
5.51084e-08
6.68823e-07
-1.16921e-07
2.78776e-08
6.91109e-07
-1.15409e-07
-1.60069e-15
7.01908e-07
-1.14772e-07
-2.78776e-08
7.01908e-07
-1.14772e-07
-5.51084e-08
6.91109e-07
-1.15409e-07
-8.05878e-08
6.68823e-07
-1.16921e-07
-1.02881e-07
6.33262e-07
-1.18106e-07
5.8179e-07
-1.19041e-07
-1.19041e-07
6.42951e-08
6.42951e-08
5.89417e-07
-6.81083e-08
-6.81083e-08
5.38389e-08
6.76717e-08
6.48146e-07
-7.20998e-08
3.84582e-08
6.93604e-08
6.88993e-07
-7.41492e-08
1.99696e-08
7.00183e-08
7.14724e-07
-7.51444e-08
-7.5559e-16
7.02987e-08
7.27216e-07
-7.56371e-08
-1.99696e-08
7.02987e-08
7.27216e-07
-7.56371e-08
-3.84582e-08
7.00183e-08
7.14724e-07
-7.51444e-08
-5.38389e-08
6.93604e-08
6.88993e-07
-7.41492e-08
-6.42951e-08
6.76717e-08
6.48146e-07
-7.20998e-08
6.42951e-08
5.89417e-07
-6.81083e-08
-6.81083e-08
6.76717e-08
5.38389e-08
6.48146e-07
-7.20998e-08
5.63922e-08
5.63922e-08
6.97263e-07
4.02342e-08
5.76226e-08
7.30273e-07
2.08852e-08
5.80486e-08
7.51037e-07
2.34863e-15
5.81904e-08
7.61159e-07
-2.08852e-08
5.81904e-08
7.61159e-07
-4.02342e-08
5.80486e-08
7.51037e-07
-5.63922e-08
5.76226e-08
7.30273e-07
-6.76717e-08
5.63922e-08
6.97263e-07
5.38389e-08
6.48146e-07
-7.20998e-08
6.93604e-08
3.84582e-08
6.88993e-07
-7.41492e-08
5.76226e-08
4.02342e-08
7.30273e-07
4.10418e-08
4.10418e-08
7.57954e-07
2.12933e-08
4.12933e-08
7.75574e-07
1.86023e-15
4.13539e-08
7.84244e-07
-2.12933e-08
4.13539e-08
7.84244e-07
-4.10418e-08
4.12933e-08
7.75574e-07
-5.76226e-08
4.10418e-08
7.57954e-07
-6.93604e-08
4.02342e-08
7.30273e-07
3.84582e-08
6.88993e-07
-7.41492e-08
7.00183e-08
1.99696e-08
7.14724e-07
-7.51444e-08
5.80486e-08
2.08852e-08
7.51037e-07
4.12933e-08
2.12933e-08
7.75574e-07
2.14129e-08
2.14129e-08
7.91386e-07
1.19085e-15
2.14343e-08
7.99222e-07
-2.14129e-08
2.14343e-08
7.99222e-07
-4.12933e-08
2.14129e-08
7.91386e-07
-5.80486e-08
2.12933e-08
7.75574e-07
-7.00183e-08
2.08852e-08
7.51037e-07
1.99696e-08
7.14724e-07
-7.51444e-08
7.02987e-08
4.70624e-17
7.27216e-07
-7.56371e-08
5.81904e-08
2.55984e-15
7.61159e-07
4.13539e-08
2.24022e-15
7.84244e-07
2.14343e-08
1.79428e-15
7.99222e-07
9.23114e-16
1.37095e-15
8.06669e-07
-2.14343e-08
1.51539e-15
8.06669e-07
-4.13539e-08
1.01694e-15
7.99222e-07
-5.81904e-08
-9.67718e-17
7.84244e-07
-7.02987e-08
-2.55154e-15
7.61159e-07
-3.36319e-15
7.27216e-07
-7.56371e-08
7.02987e-08
-1.99696e-08
7.27216e-07
-7.56371e-08
5.81904e-08
-2.08852e-08
7.61159e-07
4.13539e-08
-2.12933e-08
7.84244e-07
2.14343e-08
-2.14128e-08
7.99222e-07
9.87435e-16
-2.14343e-08
8.06669e-07
-2.14343e-08
-2.14343e-08
8.06669e-07
-4.13539e-08
-2.14129e-08
7.99222e-07
-5.81904e-08
-2.12933e-08
7.84244e-07
-7.02987e-08
-2.08852e-08
7.61159e-07
-1.99696e-08
7.27216e-07
-7.56371e-08
7.00183e-08
-3.84582e-08
7.14724e-07
-7.51444e-08
5.80486e-08
-4.02342e-08
7.51037e-07
4.12933e-08
-4.10418e-08
7.75574e-07
2.14129e-08
-4.12933e-08
7.91386e-07
5.37857e-16
-4.13539e-08
7.99222e-07
-2.14129e-08
-4.13539e-08
7.99222e-07
-4.12933e-08
-4.12933e-08
7.91386e-07
-5.80486e-08
-4.10418e-08
7.75574e-07
-7.00183e-08
-4.02342e-08
7.51037e-07
-3.84582e-08
7.14724e-07
-7.51444e-08
6.93604e-08
-5.38389e-08
6.88993e-07
-7.41492e-08
5.76226e-08
-5.63922e-08
7.30273e-07
4.10418e-08
-5.76226e-08
7.57954e-07
2.12933e-08
-5.80486e-08
7.75574e-07
-2.05957e-16
-5.81904e-08
7.84244e-07
-2.12933e-08
-5.81904e-08
7.84244e-07
-4.10418e-08
-5.80486e-08
7.75574e-07
-5.76226e-08
-5.76226e-08
7.57954e-07
-6.93604e-08
-5.63922e-08
7.30273e-07
-5.38389e-08
6.88993e-07
-7.41492e-08
6.76717e-08
-6.42951e-08
6.48146e-07
-7.20998e-08
5.63922e-08
-6.76717e-08
6.97263e-07
4.02342e-08
-6.93604e-08
7.30273e-07
2.08852e-08
-7.00183e-08
7.51037e-07
-2.38841e-15
-7.02987e-08
7.61159e-07
-2.08852e-08
-7.02987e-08
7.61159e-07
-4.02342e-08
-7.00183e-08
7.51037e-07
-5.63922e-08
-6.93604e-08
7.30273e-07
-6.76717e-08
-6.76717e-08
6.97263e-07
-6.42951e-08
6.48146e-07
-7.20998e-08
6.42951e-08
5.89417e-07
-6.81083e-08
-6.81083e-08
5.38389e-08
6.48146e-07
-7.20998e-08
3.84582e-08
6.88993e-07
-7.41492e-08
1.99696e-08
7.14724e-07
-7.51444e-08
-2.05406e-15
7.27216e-07
-7.56371e-08
-1.99696e-08
7.27216e-07
-7.56371e-08
-3.84582e-08
7.14724e-07
-7.51444e-08
-5.38389e-08
6.88993e-07
-7.41492e-08
-6.42951e-08
6.48146e-07
-7.20998e-08
5.89417e-07
-6.81083e-08
-6.81083e-08
2.37124e-08
2.37124e-08
5.88305e-07
-2.31564e-08
-2.31564e-08
2.13953e-08
2.77038e-08
6.49778e-07
-2.70179e-08
1.60254e-08
3.03482e-08
6.93256e-07
-2.92414e-08
8.56259e-09
3.19256e-08
7.20989e-07
-3.07286e-08
-4.99108e-16
3.26861e-08
7.34546e-07
-3.14533e-08
-8.5626e-09
3.26861e-08
7.34546e-07
-3.14533e-08
-1.60254e-08
3.19256e-08
7.20989e-07
-3.07286e-08
-2.13953e-08
3.03482e-08
6.93256e-07
-2.92414e-08
-2.37124e-08
2.77038e-08
6.49778e-07
-2.70179e-08
2.37124e-08
5.88305e-07
-2.31564e-08
-2.31564e-08
2.77038e-08
2.13953e-08
6.49778e-07
-2.70179e-08
2.48096e-08
2.48096e-08
7.03052e-07
1.85792e-08
2.71554e-08
7.39697e-07
9.91682e-09
2.85328e-08
7.63092e-07
1.12637e-15
2.91791e-08
7.74583e-07
-9.91682e-09
2.91791e-08
7.74583e-07
-1.85792e-08
2.85328e-08
7.63092e-07
-2.48096e-08
2.71554e-08
7.39697e-07
-2.77038e-08
2.48096e-08
7.03052e-07
2.13953e-08
6.49778e-07
-2.70179e-08
3.03482e-08
1.60254e-08
6.93256e-07
-2.92414e-08
2.71554e-08
1.85792e-08
7.39697e-07
2.03011e-08
2.03011e-08
7.71663e-07
1.08241e-08
2.12981e-08
7.92286e-07
1.10063e-15
2.1756e-08
8.02491e-07
-1.08241e-08
2.1756e-08
8.02491e-07
-2.03011e-08
2.12981e-08
7.92286e-07
-2.71554e-08
2.03011e-08
7.71663e-07
-3.03482e-08
1.85792e-08
7.39697e-07
1.60254e-08
6.93256e-07
-2.92414e-08
3.19256e-08
8.5626e-09
7.20989e-07
-3.07286e-08
2.85328e-08
9.91682e-09
7.63092e-07
2.12981e-08
1.08241e-08
7.92286e-07
1.13452e-08
1.13452e-08
8.11292e-07
7.85484e-16
1.15814e-08
8.20742e-07
-1.13452e-08
1.15814e-08
8.20742e-07
-2.12981e-08
1.13452e-08
8.11292e-07
-2.85328e-08
1.08241e-08
7.92286e-07
-3.19256e-08
9.91682e-09
7.63092e-07
8.5626e-09
7.20989e-07
-3.07286e-08
3.26861e-08
1.1943e-15
7.34546e-07
-3.14533e-08
2.91791e-08
1.13039e-15
7.74583e-07
2.1756e-08
9.46438e-16
8.02491e-07
1.15814e-08
1.06622e-15
8.20742e-07
9.44758e-16
1.02188e-15
8.29832e-07
-1.15814e-08
1.50001e-15
8.29832e-07
-2.1756e-08
1.2944e-15
8.20742e-07
-2.91791e-08
5.68333e-16
8.02491e-07
-3.26861e-08
-2.22982e-15
7.74583e-07
-3.00613e-15
7.34546e-07
-3.14533e-08
3.26861e-08
-8.56259e-09
7.34546e-07
-3.14533e-08
2.91791e-08
-9.91682e-09
7.74583e-07
2.1756e-08
-1.08241e-08
8.02491e-07
1.15814e-08
-1.13452e-08
8.20742e-07
1.33389e-15
-1.15814e-08
8.29832e-07
-1.15814e-08
-1.15814e-08
8.29832e-07
-2.1756e-08
-1.13452e-08
8.20742e-07
-2.91791e-08
-1.08241e-08
8.02491e-07
-3.26861e-08
-9.91683e-09
7.74583e-07
-8.5626e-09
7.34546e-07
-3.14533e-08
3.19256e-08
-1.60254e-08
7.20989e-07
-3.07286e-08
2.85328e-08
-1.85792e-08
7.63092e-07
2.12981e-08
-2.03011e-08
7.92286e-07
1.13452e-08
-2.12981e-08
8.11292e-07
1.05122e-15
-2.1756e-08
8.20742e-07
-1.13452e-08
-2.1756e-08
8.20742e-07
-2.12981e-08
-2.12981e-08
8.11292e-07
-2.85328e-08
-2.03011e-08
7.92286e-07
-3.19256e-08
-1.85792e-08
7.63092e-07
-1.60254e-08
7.20989e-07
-3.07286e-08
3.03482e-08
-2.13953e-08
6.93256e-07
-2.92414e-08
2.71554e-08
-2.48096e-08
7.39697e-07
2.03011e-08
-2.71554e-08
7.71663e-07
1.08241e-08
-2.85328e-08
7.92286e-07
6.91315e-16
-2.91791e-08
8.02491e-07
-1.08241e-08
-2.91791e-08
8.02491e-07
-2.03011e-08
-2.85328e-08
7.92286e-07
-2.71554e-08
-2.71554e-08
7.71663e-07
-3.03482e-08
-2.48096e-08
7.39697e-07
-2.13953e-08
6.93256e-07
-2.92414e-08
2.77038e-08
-2.37124e-08
6.49778e-07
-2.70179e-08
2.48096e-08
-2.77038e-08
7.03052e-07
1.85792e-08
-3.03482e-08
7.39697e-07
9.91682e-09
-3.19256e-08
7.63092e-07
-1.4362e-15
-3.26861e-08
7.74583e-07
-9.91682e-09
-3.26861e-08
7.74583e-07
-1.85792e-08
-3.19256e-08
7.63092e-07
-2.48096e-08
-3.03482e-08
7.39697e-07
-2.77038e-08
-2.77038e-08
7.03052e-07
-2.37124e-08
6.49778e-07
-2.70179e-08
2.37124e-08
5.88305e-07
-2.31564e-08
-2.31564e-08
2.13953e-08
6.49778e-07
-2.70179e-08
1.60254e-08
6.93256e-07
-2.92414e-08
8.5626e-09
7.20989e-07
-3.07286e-08
-2.17061e-15
7.34546e-07
-3.14533e-08
-8.5626e-09
7.34546e-07
-3.14533e-08
-1.60254e-08
7.20989e-07
-3.07286e-08
-2.13953e-08
6.93256e-07
-2.92414e-08
-2.37124e-08
6.49778e-07
-2.70179e-08
5.88305e-07
-2.31564e-08
-2.31564e-08
8.79912e-09
8.79912e-09
5.86871e-07
-8.08252e-09
-8.08252e-09
8.24094e-09
1.07292e-08
6.49361e-07
-9.75452e-09
6.32832e-09
1.20892e-08
6.93909e-07
-1.08301e-08
3.4318e-09
1.29611e-08
7.22506e-07
-1.15813e-08
2.63223e-16
1.33883e-08
7.36534e-07
-1.19452e-08
-3.4318e-09
1.33883e-08
7.36534e-07
-1.19452e-08
-6.32833e-09
1.29611e-08
7.22506e-07
-1.15813e-08
-8.24095e-09
1.20892e-08
6.93909e-07
-1.08301e-08
-8.79912e-09
1.07292e-08
6.49361e-07
-9.75452e-09
8.79912e-09
5.86871e-07
-8.08252e-09
-8.08252e-09
1.07292e-08
8.24094e-09
6.49361e-07
-9.75452e-09
1.00383e-08
1.00383e-08
7.04434e-07
7.72104e-09
1.13346e-08
7.42768e-07
4.18382e-09
1.21439e-08
7.67447e-07
1.97813e-15
1.25357e-08
7.7962e-07
-4.18382e-09
1.25357e-08
7.7962e-07
-7.72103e-09
1.21439e-08
7.67447e-07
-1.00383e-08
1.13346e-08
7.42768e-07
-1.07292e-08
1.00383e-08
7.04434e-07
8.24094e-09
6.49361e-07
-9.75452e-09
1.20892e-08
6.32832e-09
6.93909e-07
-1.08301e-08
1.13346e-08
7.72104e-09
7.42768e-07
8.71954e-09
8.71954e-09
7.76893e-07
4.72256e-09
9.33448e-09
7.99092e-07
1.74301e-15
9.62863e-09
8.10121e-07
-4.72256e-09
9.62863e-09
8.10121e-07
-8.71953e-09
9.33448e-09
7.99092e-07
-1.13346e-08
8.71953e-09
7.76893e-07
-1.20892e-08
7.72103e-09
7.42768e-07
6.32832e-09
6.93909e-07
-1.08301e-08
1.29611e-08
3.4318e-09
7.22506e-07
-1.15813e-08
1.21439e-08
4.18382e-09
7.67447e-07
9.33448e-09
4.72256e-09
7.99092e-07
5.05364e-09
5.05364e-09
8.19854e-07
1.17365e-15
5.21123e-09
8.30213e-07
-5.05363e-09
5.21123e-09
8.30213e-07
-9.33447e-09
5.05364e-09
8.19854e-07
-1.21439e-08
4.72256e-09
7.99092e-07
-1.29611e-08
4.18382e-09
7.67447e-07
3.4318e-09
7.22506e-07
-1.15813e-08
1.33883e-08
4.69923e-16
7.36534e-07
-1.19452e-08
1.25357e-08
1.85274e-15
7.7962e-07
9.62863e-09
1.89836e-15
8.10121e-07
5.21123e-09
1.54313e-15
8.30213e-07
7.95731e-16
1.20172e-15
8.40255e-07
-5.21123e-09
1.10565e-15
8.40255e-07
-9.62863e-09
6.88067e-16
8.30213e-07
-1.25357e-08
-1.77027e-17
8.10121e-07
-1.33883e-08
-9.39375e-16
7.7962e-07
-3.06233e-16
7.36534e-07
-1.19452e-08
1.33883e-08
-3.4318e-09
7.36534e-07
-1.19452e-08
1.25357e-08
-4.18382e-09
7.7962e-07
9.62863e-09
-4.72256e-09
8.10121e-07
5.21123e-09
-5.05363e-09
8.30213e-07
6.2351e-16
-5.21123e-09
8.40255e-07
-5.21123e-09
-5.21123e-09
8.40255e-07
-9.62863e-09
-5.05363e-09
8.30213e-07
-1.25357e-08
-4.72256e-09
8.10121e-07
-1.33883e-08
-4.18382e-09
7.7962e-07
-3.4318e-09
7.36534e-07
-1.19452e-08
1.29611e-08
-6.32832e-09
7.22506e-07
-1.15813e-08
1.21439e-08
-7.72103e-09
7.67447e-07
9.33448e-09
-8.71953e-09
7.99092e-07
5.05364e-09
-9.33447e-09
8.19854e-07
3.45936e-16
-9.62863e-09
8.30213e-07
-5.05364e-09
-9.62863e-09
8.30213e-07
-9.33448e-09
-9.33447e-09
8.19854e-07
-1.21439e-08
-8.71953e-09
7.99092e-07
-1.29611e-08
-7.72104e-09
7.67447e-07
-6.32832e-09
7.22506e-07
-1.15813e-08
1.20892e-08
-8.24094e-09
6.93909e-07
-1.08301e-08
1.13346e-08
-1.00383e-08
7.42768e-07
8.71954e-09
-1.13346e-08
7.76893e-07
4.72256e-09
-1.21439e-08
7.99092e-07
-6.59876e-17
-1.25357e-08
8.10121e-07
-4.72256e-09
-1.25357e-08
8.10121e-07
-8.71953e-09
-1.21439e-08
7.99092e-07
-1.13346e-08
-1.13346e-08
7.76893e-07
-1.20892e-08
-1.00383e-08
7.42768e-07
-8.24094e-09
6.93909e-07
-1.08301e-08
1.07292e-08
-8.79912e-09
6.49361e-07
-9.75452e-09
1.00383e-08
-1.07292e-08
7.04434e-07
7.72103e-09
-1.20892e-08
7.42768e-07
4.18382e-09
-1.29611e-08
7.67447e-07
-1.54413e-15
-1.33883e-08
7.7962e-07
-4.18382e-09
-1.33883e-08
7.7962e-07
-7.72104e-09
-1.29611e-08
7.67447e-07
-1.00383e-08
-1.20892e-08
7.42768e-07
-1.07292e-08
-1.07292e-08
7.04434e-07
-8.79912e-09
6.49361e-07
-9.75452e-09
8.79912e-09
5.86871e-07
-8.08252e-09
-8.08252e-09
8.24094e-09
6.49361e-07
-9.75452e-09
6.32832e-09
6.93909e-07
-1.08301e-08
3.4318e-09
7.22506e-07
-1.15813e-08
-1.02885e-15
7.36534e-07
-1.19452e-08
-3.43181e-09
7.36534e-07
-1.19452e-08
-6.32833e-09
7.22506e-07
-1.15813e-08
-8.24095e-09
6.93909e-07
-1.08301e-08
-8.79912e-09
6.49361e-07
-9.75452e-09
5.86871e-07
-8.08253e-09
-8.08253e-09
2.87137e-09
2.87137e-09
5.85931e-07
-2.40133e-09
-2.40133e-09
2.85965e-09
3.77201e-09
6.48729e-07
-3.12863e-09
2.28068e-09
4.43319e-09
6.93679e-07
-3.62363e-09
1.26418e-09
4.8748e-09
7.22631e-07
-3.98313e-09
2.20583e-17
5.093e-09
7.36862e-07
-4.15612e-09
-1.26418e-09
5.093e-09
7.36862e-07
-4.15612e-09
-2.28068e-09
4.8748e-09
7.22631e-07
-3.98313e-09
-2.85965e-09
4.43319e-09
6.93679e-07
-3.62363e-09
-2.87137e-09
3.77201e-09
6.48729e-07
-3.12863e-09
2.87137e-09
5.85931e-07
-2.40133e-09
-2.40133e-09
3.77201e-09
2.85965e-09
6.48729e-07
-3.12863e-09
3.73533e-09
3.73534e-09
7.04507e-07
2.97216e-09
4.38948e-09
7.43575e-07
1.64084e-09
4.8127e-09
7.6884e-07
4.83677e-17
5.02049e-09
7.81333e-07
-1.64084e-09
5.02049e-09
7.81333e-07
-2.97216e-09
4.8127e-09
7.6884e-07
-3.73534e-09
4.38948e-09
7.43575e-07
-3.77201e-09
3.73534e-09
7.04507e-07
2.85965e-09
6.48729e-07
-3.12863e-09
4.43319e-09
2.28068e-09
6.93679e-07
-3.62363e-09
4.38948e-09
2.97216e-09
7.43575e-07
3.4873e-09
3.4873e-09
7.78697e-07
1.92159e-09
3.81522e-09
8.01655e-07
7.56734e-17
3.9745e-09
8.13088e-07
-1.92159e-09
3.9745e-09
8.13088e-07
-3.4873e-09
3.81522e-09
8.01655e-07
-4.38948e-09
3.4873e-09
7.78697e-07
-4.43319e-09
2.97216e-09
7.43575e-07
2.28068e-09
6.93679e-07
-3.62363e-09
4.8748e-09
1.26418e-09
7.22631e-07
-3.98313e-09
4.8127e-09
1.64084e-09
7.6884e-07
3.81522e-09
1.92159e-09
8.01655e-07
2.09963e-09
2.09963e-09
8.23285e-07
5.52281e-16
2.18568e-09
8.34101e-07
-2.09963e-09
2.18568e-09
8.34101e-07
-3.81522e-09
2.09963e-09
8.23285e-07
-4.8127e-09
1.92159e-09
8.01655e-07
-4.8748e-09
1.64084e-09
7.6884e-07
1.26418e-09
7.22631e-07
-3.98313e-09
5.093e-09
5.52095e-16
7.36862e-07
-4.15612e-09
5.02049e-09
3.77135e-16
7.81333e-07
3.9745e-09
2.43609e-17
8.13088e-07
2.18568e-09
3.30209e-16
8.34101e-07
8.41868e-16
7.35713e-16
8.44626e-07
-2.18567e-09
1.012e-15
8.44626e-07
-3.9745e-09
1.13648e-15
8.34101e-07
-5.02049e-09
6.04418e-16
8.13088e-07
-5.093e-09
-5.2438e-16
7.81333e-07
-3.29777e-16
7.36862e-07
-4.15612e-09
5.093e-09
-1.26418e-09
7.36862e-07
-4.15612e-09
5.02049e-09
-1.64084e-09
7.81333e-07
3.9745e-09
-1.92159e-09
8.13088e-07
2.18568e-09
-2.09963e-09
8.34101e-07
1.24478e-15
-2.18567e-09
8.44626e-07
-2.18567e-09
-2.18567e-09
8.44626e-07
-3.9745e-09
-2.09963e-09
8.34101e-07
-5.02049e-09
-1.92159e-09
8.13088e-07
-5.093e-09
-1.64084e-09
7.81333e-07
-1.26418e-09
7.36862e-07
-4.15611e-09
4.8748e-09
-2.28068e-09
7.22631e-07
-3.98313e-09
4.8127e-09
-2.97216e-09
7.6884e-07
3.81522e-09
-3.4873e-09
8.01655e-07
2.09963e-09
-3.81522e-09
8.23285e-07
1.07655e-15
-3.9745e-09
8.34101e-07
-2.09963e-09
-3.9745e-09
8.34101e-07
-3.81522e-09
-3.81522e-09
8.23285e-07
-4.8127e-09
-3.4873e-09
8.01655e-07
-4.8748e-09
-2.97216e-09
7.6884e-07
-2.28068e-09
7.22631e-07
-3.98313e-09
4.43319e-09
-2.85965e-09
6.93679e-07
-3.62363e-09
4.38948e-09
-3.73534e-09
7.43575e-07
3.4873e-09
-4.38948e-09
7.78697e-07
1.92159e-09
-4.8127e-09
8.01655e-07
1.26203e-16
-5.02049e-09
8.13088e-07
-1.92159e-09
-5.02049e-09
8.13088e-07
-3.4873e-09
-4.8127e-09
8.01655e-07
-4.38948e-09
-4.38948e-09
7.78697e-07
-4.43319e-09
-3.73534e-09
7.43575e-07
-2.85965e-09
6.93679e-07
-3.62363e-09
3.77201e-09
-2.87137e-09
6.48729e-07
-3.12863e-09
3.73534e-09
-3.77201e-09
7.04507e-07
2.97216e-09
-4.43319e-09
7.43575e-07
1.64084e-09
-4.8748e-09
7.6884e-07
-9.06449e-16
-5.093e-09
7.81333e-07
-1.64084e-09
-5.093e-09
7.81333e-07
-2.97217e-09
-4.8748e-09
7.6884e-07
-3.73534e-09
-4.43319e-09
7.43575e-07
-3.77201e-09
-3.77201e-09
7.04507e-07
-2.87137e-09
6.48729e-07
-3.12863e-09
2.87137e-09
5.85931e-07
-2.40133e-09
-2.40133e-09
2.85965e-09
6.48729e-07
-3.12863e-09
2.28068e-09
6.93679e-07
-3.62363e-09
1.26418e-09
7.22631e-07
-3.98313e-09
-5.08567e-16
7.36862e-07
-4.15612e-09
-1.26418e-09
7.36862e-07
-4.15611e-09
-2.28068e-09
7.22631e-07
-3.98313e-09
-2.85965e-09
6.93679e-07
-3.62363e-09
-2.87137e-09
6.48729e-07
-3.12863e-09
5.85931e-07
-2.40133e-09
-2.40133e-09
7.81368e-10
7.8137e-10
5.85535e-07
-5.83194e-10
-5.83194e-10
8.40567e-10
1.13859e-09
6.48385e-07
-8.53164e-10
6.99828e-10
1.41389e-09
6.93446e-07
-1.04066e-09
3.97553e-10
1.60785e-09
7.22513e-07
-1.18741e-09
5.47953e-16
1.70513e-09
7.36812e-07
-1.25842e-09
-3.97552e-10
1.70513e-09
7.36812e-07
-1.25842e-09
-6.99827e-10
1.60785e-09
7.22513e-07
-1.18741e-09
-8.40567e-10
1.41389e-09
6.93446e-07
-1.04066e-09
-7.81366e-10
1.13858e-09
6.48385e-07
-8.53163e-10
7.81369e-10
5.85535e-07
-5.83193e-10
-5.83194e-10
1.13859e-09
8.4057e-10
6.48385e-07
-8.53164e-10
1.20286e-09
1.20287e-09
7.04379e-07
9.94352e-10
1.48919e-09
7.43709e-07
5.60699e-10
1.68384e-09
7.69198e-07
8.33578e-16
1.78151e-09
7.81817e-07
-5.60698e-10
1.78151e-09
7.81817e-07
-9.94351e-10
1.68385e-09
7.69198e-07
-1.20286e-09
1.48919e-09
7.43709e-07
-1.13858e-09
1.20286e-09
7.04379e-07
8.4057e-10
6.48385e-07
-8.53163e-10
1.41389e-09
6.99831e-10
6.93446e-07
-1.04066e-09
1.48919e-09
9.94354e-10
7.43709e-07
1.22701e-09
1.227e-09
7.79221e-07
6.89614e-10
1.38248e-09
8.02494e-07
1.17993e-15
1.45996e-09
8.14099e-07
-6.89611e-10
1.45996e-09
8.14099e-07
-1.227e-09
1.38248e-09
8.02494e-07
-1.48919e-09
1.227e-09
7.79221e-07
-1.41389e-09
9.94351e-10
7.43709e-07
6.99829e-10
6.93446e-07
-1.04066e-09
1.60785e-09
3.97555e-10
7.22513e-07
-1.18741e-09
1.68385e-09
5.607e-10
7.69198e-07
1.38248e-09
6.89613e-10
8.02494e-07
7.754e-10
7.754e-10
8.24499e-07
1.08012e-15
8.18013e-10
8.35519e-07
-7.75398e-10
8.18013e-10
8.35519e-07
-1.38248e-09
7.754e-10
8.24499e-07
-1.68385e-09
6.89612e-10
8.02494e-07
-1.60785e-09
5.60698e-10
7.69198e-07
3.97553e-10
7.22513e-07
-1.18741e-09
1.70513e-09
6.43923e-16
7.36812e-07
-1.25842e-09
1.78151e-09
1.30082e-15
7.81817e-07
1.45996e-09
1.06969e-15
8.14099e-07
8.18013e-10
1.03446e-15
8.35519e-07
7.81221e-16
1.03107e-15
8.46262e-07
-8.18011e-10
8.80882e-16
8.46262e-07
-1.45995e-09
6.94648e-16
8.35519e-07
-1.78151e-09
4.79979e-16
8.14099e-07
-1.70513e-09
5.50545e-17
7.81817e-07
-7.39284e-17
7.36812e-07
-1.25842e-09
1.70513e-09
-3.97553e-10
7.36812e-07
-1.25842e-09
1.78151e-09
-5.60697e-10
7.81817e-07
1.45996e-09
-6.89611e-10
8.14099e-07
8.18013e-10
-7.75398e-10
8.35519e-07
7.22889e-16
-8.18011e-10
8.46262e-07
-8.18011e-10
-8.18011e-10
8.46262e-07
-1.45995e-09
-7.75398e-10
8.35519e-07
-1.78151e-09
-6.89611e-10
8.14099e-07
-1.70513e-09
-5.60698e-10
7.81817e-07
-3.97554e-10
7.36812e-07
-1.25842e-09
1.60785e-09
-6.99829e-10
7.22513e-07
-1.18741e-09
1.68385e-09
-9.9435e-10
7.69198e-07
1.38248e-09
-1.227e-09
8.02494e-07
7.754e-10
-1.38248e-09
8.24499e-07
6.10192e-16
-1.45995e-09
8.35519e-07
-7.75399e-10
-1.45995e-09
8.35519e-07
-1.38248e-09
-1.38248e-09
8.24499e-07
-1.68385e-09
-1.227e-09
8.02494e-07
-1.60785e-09
-9.94351e-10
7.69198e-07
-6.9983e-10
7.22513e-07
-1.18741e-09
1.41389e-09
-8.40569e-10
6.93446e-07
-1.04066e-09
1.48919e-09
-1.20286e-09
7.43709e-07
1.227e-09
-1.48919e-09
7.79221e-07
6.89613e-10
-1.68384e-09
8.02494e-07
7.41535e-16
-1.78151e-09
8.14099e-07
-6.89611e-10
-1.78151e-09
8.14099e-07
-1.227e-09
-1.68384e-09
8.02494e-07
-1.48919e-09
-1.48919e-09
7.79221e-07
-1.41388e-09
-1.20286e-09
7.43709e-07
-8.4057e-10
6.93446e-07
-1.04066e-09
1.13858e-09
-7.81369e-10
6.48385e-07
-8.53163e-10
1.20286e-09
-1.13858e-09
7.04379e-07
9.94352e-10
-1.41389e-09
7.43709e-07
5.60699e-10
-1.60785e-09
7.69198e-07
7.2617e-16
-1.70513e-09
7.81817e-07
-5.60697e-10
-1.70513e-09
7.81817e-07
-9.94349e-10
-1.60785e-09
7.69198e-07
-1.20286e-09
-1.41388e-09
7.43709e-07
-1.13858e-09
-1.13858e-09
7.04379e-07
-7.81369e-10
6.48385e-07
-8.53163e-10
7.81367e-10
5.85535e-07
-5.83194e-10
-5.83193e-10
8.40568e-10
6.48385e-07
-8.53163e-10
6.99828e-10
6.93446e-07
-1.04066e-09
3.97553e-10
7.22513e-07
-1.18741e-09
4.18031e-16
7.36812e-07
-1.25842e-09
-3.97552e-10
7.36812e-07
-1.25842e-09
-6.99828e-10
7.22513e-07
-1.18741e-09
-8.40567e-10
6.93446e-07
-1.04066e-09
-7.81368e-10
6.48385e-07
-8.53163e-10
5.85535e-07
-5.83194e-10
-5.83194e-10
1.96446e-10
1.96445e-10
5.85394e-07
-1.26097e-10
-1.26097e-10
2.29356e-10
3.18204e-10
6.48247e-07
-2.13773e-10
1.98913e-10
4.15239e-10
6.93336e-07
-2.75097e-10
1.15637e-10
4.86806e-10
7.22436e-07
-3.26244e-10
4.26296e-16
5.22966e-10
7.36756e-07
-3.50566e-10
-1.15636e-10
5.22966e-10
7.36756e-07
-3.50567e-10
-1.98912e-10
4.86806e-10
7.22436e-07
-3.26244e-10
-2.29354e-10
4.1524e-10
6.93336e-07
-2.75097e-10
-1.96445e-10
3.18205e-10
6.48247e-07
-2.13773e-10
1.96444e-10
5.85394e-07
-1.26096e-10
-1.26096e-10
3.18205e-10
2.29355e-10
6.48247e-07
-2.13773e-10
3.57331e-10
3.5733e-10
7.043e-07
3.05551e-10
4.62957e-10
7.43713e-07
1.75524e-10
5.37902e-10
7.69277e-07
2.41875e-16
5.7614e-10
7.8194e-07
-1.75524e-10
5.7614e-10
7.8194e-07
-3.0555e-10
5.37902e-10
7.69277e-07
-3.5733e-10
4.62958e-10
7.43713e-07
-3.18204e-10
3.57331e-10
7.043e-07
2.29354e-10
6.48247e-07
-2.13773e-10
4.15239e-10
1.98913e-10
6.93336e-07
-2.75097e-10
4.62957e-10
3.05551e-10
7.43713e-07
3.94003e-10
3.94003e-10
7.79359e-07
2.25346e-10
4.55711e-10
8.02745e-07
-9.63639e-17
4.87122e-10
8.14414e-07
-2.25346e-10
4.87122e-10
8.14414e-07
-3.94003e-10
4.55711e-10
8.02745e-07
-4.62957e-10
3.94004e-10
7.79359e-07
-4.15239e-10
3.05552e-10
7.43713e-07
1.98912e-10
6.93336e-07
-2.75097e-10
4.86805e-10
1.15637e-10
7.22436e-07
-3.26243e-10
5.37901e-10
1.75524e-10
7.69277e-07
4.5571e-10
2.25346e-10
8.02745e-07
2.59986e-10
2.59986e-10
8.24891e-07
-1.1835e-16
2.77604e-10
8.35988e-07
-2.59986e-10
2.77604e-10
8.35988e-07
-4.5571e-10
2.59987e-10
8.24891e-07
-5.37901e-10
2.25347e-10