/*--------------------------------*- C++ -*----------------------------------*\
| =========                 |                                                 |
| \\      /  F ield         | OpenFOAM: The Open Source CFD Toolbox           |
|  \\    /   O peration     | Version:  2412                                  |
|   \\  /    A nd           | Website:  www.openfoam.com                      |
|    \\/     M anipulation  |                                                 |
\*---------------------------------------------------------------------------*/
FoamFile
{
    version     2.0;
    format      ascii;
    arch        "LSB;label=32;scalar=64";
    class       volVectorField;
    location    "4.5";
    object      U;
}
// * * * * * * * * * * * * * * * * * * * * * * * * * * * * * * * * * * * * * //

dimensions      [0 1 -1 0 0 0 0];

internalField   nonuniform List<vector> 
15000
(
(0.00120298 0.00120298 0.0104959)
(0.000888802 0.00112693 0.0104758)
(0.000605563 0.00110161 0.0104476)
(0.000355337 0.00107602 0.0104236)
(0.000116654 0.00106415 0.0104108)
(-0.000116654 0.00106415 0.0104108)
(-0.000355337 0.00107602 0.0104236)
(-0.000605563 0.00110161 0.0104476)
(-0.000888802 0.00112693 0.0104758)
(-0.00120298 0.00120298 0.0104959)
(0.00112693 0.000888802 0.0104758)
(0.000838131 0.000838131 0.0104296)
(0.000572922 0.000801439 0.0103851)
(0.000333681 0.000775133 0.010353)
(0.000109381 0.00076229 0.0103367)
(-0.000109381 0.00076229 0.0103367)
(-0.000333681 0.000775133 0.010353)
(-0.000572922 0.000801439 0.0103851)
(-0.000838131 0.000838131 0.0104296)
(-0.00112693 0.000888802 0.0104758)
(0.00110161 0.000605563 0.0104476)
(0.000801439 0.000572922 0.0103851)
(0.000543148 0.000543148 0.0103331)
(0.000314283 0.000521467 0.0102978)
(0.000102757 0.000510538 0.0102803)
(-0.000102757 0.000510538 0.0102803)
(-0.000314283 0.000521467 0.0102978)
(-0.000543148 0.000543148 0.0103331)
(-0.000801439 0.000572922 0.0103851)
(-0.00110161 0.000605563 0.0104476)
(0.00107602 0.000355337 0.0104236)
(0.000775133 0.000333681 0.010353)
(0.000521467 0.000314283 0.0102978)
(0.000300176 0.000300176 0.0102614)
(9.79213e-05 0.000293004 0.0102435)
(-9.79213e-05 0.000293004 0.0102435)
(-0.000300176 0.000300176 0.0102614)
(-0.000521467 0.000314283 0.0102978)
(-0.000775133 0.000333681 0.010353)
(-0.00107602 0.000355337 0.0104236)
(0.00106415 0.000116654 0.0104108)
(0.00076229 0.000109381 0.0103367)
(0.000510538 0.000102757 0.0102803)
(0.000293004 9.79213e-05 0.0102435)
(9.5456e-05 9.5456e-05 0.0102255)
(-9.5456e-05 9.5456e-05 0.0102255)
(-0.000293004 9.79213e-05 0.0102435)
(-0.000510538 0.000102757 0.0102803)
(-0.00076229 0.000109381 0.0103367)
(-0.00106415 0.000116654 0.0104108)
(0.00106415 -0.000116654 0.0104108)
(0.00076229 -0.000109381 0.0103367)
(0.000510538 -0.000102757 0.0102803)
(0.000293004 -9.79213e-05 0.0102435)
(9.5456e-05 -9.5456e-05 0.0102255)
(-9.5456e-05 -9.5456e-05 0.0102255)
(-0.000293004 -9.79213e-05 0.0102435)
(-0.000510538 -0.000102757 0.0102803)
(-0.00076229 -0.000109381 0.0103367)
(-0.00106415 -0.000116654 0.0104108)
(0.00107602 -0.000355337 0.0104236)
(0.000775133 -0.000333681 0.010353)
(0.000521467 -0.000314283 0.0102978)
(0.000300176 -0.000300176 0.0102614)
(9.79213e-05 -0.000293004 0.0102435)
(-9.79213e-05 -0.000293004 0.0102435)
(-0.000300176 -0.000300176 0.0102614)
(-0.000521467 -0.000314283 0.0102978)
(-0.000775133 -0.000333681 0.010353)
(-0.00107602 -0.000355337 0.0104236)
(0.00110161 -0.000605563 0.0104476)
(0.000801439 -0.000572922 0.0103851)
(0.000543148 -0.000543148 0.0103331)
(0.000314283 -0.000521467 0.0102978)
(0.000102757 -0.000510538 0.0102803)
(-0.000102757 -0.000510538 0.0102803)
(-0.000314283 -0.000521467 0.0102978)
(-0.000543148 -0.000543148 0.0103331)
(-0.000801439 -0.000572922 0.0103851)
(-0.00110161 -0.000605563 0.0104476)
(0.00112693 -0.000888802 0.0104758)
(0.000838131 -0.000838131 0.0104296)
(0.000572922 -0.000801439 0.0103851)
(0.000333681 -0.000775133 0.010353)
(0.000109381 -0.00076229 0.0103367)
(-0.000109381 -0.00076229 0.0103367)
(-0.000333681 -0.000775133 0.010353)
(-0.000572922 -0.000801439 0.0103851)
(-0.000838131 -0.000838131 0.0104296)
(-0.00112693 -0.000888802 0.0104758)
(0.00120298 -0.00120298 0.0104959)
(0.000888802 -0.00112693 0.0104758)
(0.000605563 -0.00110161 0.0104476)
(0.000355337 -0.00107602 0.0104236)
(0.000116654 -0.00106415 0.0104108)
(-0.000116654 -0.00106415 0.0104108)
(-0.000355337 -0.00107602 0.0104236)
(-0.000605563 -0.00110161 0.0104476)
(-0.000888802 -0.00112693 0.0104758)
(-0.00120298 -0.00120298 0.0104959)
(0.00064402 0.00064402 0.0125619)
(0.000509471 0.000677958 0.0125146)
(0.000362532 0.000701386 0.012416)
(0.000217426 0.000713024 0.0123261)
(7.20777e-05 0.000719372 0.0122762)
(-7.20777e-05 0.000719372 0.0122762)
(-0.000217426 0.000713024 0.0123261)
(-0.000362532 0.000701386 0.012416)
(-0.000509472 0.000677958 0.0125146)
(-0.00064402 0.00064402 0.0125619)
(0.000677958 0.000509471 0.0125146)
(0.00053006 0.00053006 0.0123482)
(0.000375744 0.000541785 0.0121704)
(0.000224148 0.000547328 0.0120385)
(7.43609e-05 0.000550256 0.0119705)
(-7.43609e-05 0.000550256 0.0119705)
(-0.000224148 0.000547328 0.0120385)
(-0.000375744 0.000541785 0.0121704)
(-0.00053006 0.00053006 0.0123482)
(-0.000677958 0.000509471 0.0125146)
(0.000701386 0.000362532 0.012416)
(0.000541785 0.000375744 0.0121704)
(0.000382768 0.000382768 0.0119528)
(0.000227854 0.000386121 0.0118032)
(7.56093e-05 0.000387768 0.0117287)
(-7.56093e-05 0.000387768 0.0117287)
(-0.000227854 0.000386121 0.0118032)
(-0.000382768 0.000382768 0.0119528)
(-0.000541785 0.000375744 0.0121704)
(-0.000701386 0.000362532 0.012416)
(0.000713024 0.000217426 0.0123261)
(0.000547328 0.000224148 0.0120385)
(0.000386121 0.000227854 0.0118032)
(0.000229724 0.000229724 0.0116474)
(7.62489e-05 0.000230627 0.011571)
(-7.62489e-05 0.000230627 0.011571)
(-0.000229724 0.000229724 0.0116474)
(-0.000386121 0.000227854 0.0118032)
(-0.000547328 0.000224148 0.0120385)
(-0.000713024 0.000217426 0.0123261)
(0.000719372 7.20777e-05 0.0122762)
(0.000550256 7.43609e-05 0.0119705)
(0.000387768 7.56093e-05 0.0117287)
(0.000230627 7.62489e-05 0.011571)
(7.65533e-05 7.65533e-05 0.0114942)
(-7.65533e-05 7.65533e-05 0.0114942)
(-0.000230627 7.62489e-05 0.011571)
(-0.000387768 7.56093e-05 0.0117287)
(-0.000550256 7.43609e-05 0.0119705)
(-0.000719372 7.20777e-05 0.0122762)
(0.000719372 -7.20777e-05 0.0122762)
(0.000550256 -7.43609e-05 0.0119705)
(0.000387768 -7.56093e-05 0.0117287)
(0.000230627 -7.62489e-05 0.011571)
(7.65533e-05 -7.65533e-05 0.0114942)
(-7.65533e-05 -7.65533e-05 0.0114942)
(-0.000230627 -7.62489e-05 0.011571)
(-0.000387768 -7.56093e-05 0.0117287)
(-0.000550256 -7.43609e-05 0.0119705)
(-0.000719372 -7.20777e-05 0.0122762)
(0.000713024 -0.000217426 0.0123261)
(0.000547328 -0.000224148 0.0120385)
(0.000386121 -0.000227854 0.0118032)
(0.000229724 -0.000229724 0.0116474)
(7.62489e-05 -0.000230627 0.011571)
(-7.62489e-05 -0.000230627 0.011571)
(-0.000229724 -0.000229724 0.0116474)
(-0.000386121 -0.000227854 0.0118032)
(-0.000547328 -0.000224148 0.0120385)
(-0.000713024 -0.000217426 0.0123261)
(0.000701386 -0.000362532 0.012416)
(0.000541785 -0.000375744 0.0121704)
(0.000382768 -0.000382768 0.0119528)
(0.000227854 -0.000386121 0.0118032)
(7.56093e-05 -0.000387768 0.0117287)
(-7.56093e-05 -0.000387768 0.0117287)
(-0.000227854 -0.000386121 0.0118032)
(-0.000382768 -0.000382768 0.0119528)
(-0.000541785 -0.000375744 0.0121704)
(-0.000701386 -0.000362532 0.012416)
(0.000677958 -0.000509471 0.0125146)
(0.00053006 -0.00053006 0.0123482)
(0.000375744 -0.000541785 0.0121704)
(0.000224148 -0.000547328 0.0120385)
(7.43608e-05 -0.000550256 0.0119705)
(-7.43609e-05 -0.000550256 0.0119705)
(-0.000224148 -0.000547328 0.0120385)
(-0.000375744 -0.000541785 0.0121704)
(-0.00053006 -0.00053006 0.0123482)
(-0.000677958 -0.000509471 0.0125146)
(0.00064402 -0.00064402 0.0125619)
(0.000509471 -0.000677958 0.0125146)
(0.000362532 -0.000701386 0.012416)
(0.000217426 -0.000713024 0.0123261)
(7.20777e-05 -0.000719372 0.0122762)
(-7.20777e-05 -0.000719372 0.0122762)
(-0.000217426 -0.000713024 0.0123261)
(-0.000362532 -0.000701386 0.012416)
(-0.000509471 -0.000677958 0.0125146)
(-0.00064402 -0.00064402 0.0125619)
(0.000395104 0.000395104 0.0124259)
(0.000332176 0.000442336 0.0125736)
(0.000250531 0.00047683 0.0125961)
(0.000155625 0.000498594 0.0125763)
(5.25308e-05 0.000509754 0.0125585)
(-5.25308e-05 0.000509754 0.0125585)
(-0.000155625 0.000498594 0.0125763)
(-0.000250531 0.00047683 0.0125961)
(-0.000332176 0.000442336 0.0125736)
(-0.000395104 0.000395104 0.0124259)
(0.000442336 0.000332176 0.0125736)
(0.000373414 0.000373414 0.0125827)
(0.000280912 0.00040172 0.0125103)
(0.000174087 0.000418964 0.0124395)
(5.88321e-05 0.000427515 0.0124)
(-5.88321e-05 0.000427515 0.0124)
(-0.000174087 0.000418964 0.0124395)
(-0.000280912 0.00040172 0.0125103)
(-0.000373414 0.000373414 0.0125827)
(-0.000442336 0.000332176 0.0125736)
(0.00047683 0.000250531 0.0125961)
(0.00040172 0.000280912 0.0125103)
(0.000301718 0.000301718 0.0123881)
(0.000186651 0.000314221 0.0122948)
(6.30809e-05 0.000320249 0.0122468)
(-6.30808e-05 0.000320249 0.0122468)
(-0.000186651 0.000314221 0.0122948)
(-0.000301718 0.000301718 0.0123881)
(-0.00040172 0.000280912 0.0125103)
(-0.00047683 0.000250531 0.0125961)
(0.000498594 0.000155625 0.0125763)
(0.000418964 0.000174087 0.0124395)
(0.000314221 0.000186651 0.0122948)
(0.000194151 0.000194151 0.0121928)
(6.55984e-05 0.000197707 0.0121418)
(-6.55984e-05 0.000197707 0.0121418)
(-0.000194151 0.000194151 0.0121928)
(-0.000314221 0.000186651 0.0122948)
(-0.000418964 0.000174087 0.0124395)
(-0.000498594 0.000155625 0.0125763)
(0.000509754 5.25308e-05 0.0125585)
(0.000427515 5.88321e-05 0.0124)
(0.000320249 6.30809e-05 0.0122468)
(0.000197707 6.55984e-05 0.0121418)
(6.67795e-05 6.67795e-05 0.0120898)
(-6.67795e-05 6.67795e-05 0.0120898)
(-0.000197707 6.55984e-05 0.0121418)
(-0.000320249 6.30808e-05 0.0122468)
(-0.000427515 5.88321e-05 0.0124)
(-0.000509754 5.25307e-05 0.0125585)
(0.000509754 -5.25308e-05 0.0125585)
(0.000427515 -5.88321e-05 0.0124)
(0.000320249 -6.30808e-05 0.0122468)
(0.000197707 -6.55984e-05 0.0121418)
(6.67795e-05 -6.67795e-05 0.0120898)
(-6.67795e-05 -6.67795e-05 0.0120898)
(-0.000197707 -6.55984e-05 0.0121418)
(-0.000320249 -6.30808e-05 0.0122468)
(-0.000427515 -5.88321e-05 0.0124)
(-0.000509754 -5.25308e-05 0.0125585)
(0.000498594 -0.000155625 0.0125763)
(0.000418964 -0.000174087 0.0124395)
(0.000314221 -0.000186651 0.0122948)
(0.000194151 -0.000194151 0.0121928)
(6.55984e-05 -0.000197707 0.0121418)
(-6.55984e-05 -0.000197707 0.0121418)
(-0.000194151 -0.000194151 0.0121928)
(-0.000314221 -0.000186651 0.0122948)
(-0.000418964 -0.000174087 0.0124395)
(-0.000498594 -0.000155625 0.0125763)
(0.00047683 -0.000250531 0.0125961)
(0.00040172 -0.000280912 0.0125103)
(0.000301718 -0.000301718 0.0123881)
(0.000186651 -0.000314221 0.0122948)
(6.30808e-05 -0.000320249 0.0122468)
(-6.30808e-05 -0.000320249 0.0122468)
(-0.000186651 -0.000314221 0.0122948)
(-0.000301718 -0.000301718 0.0123881)
(-0.00040172 -0.000280911 0.0125103)
(-0.00047683 -0.00025053 0.0125961)
(0.000442336 -0.000332176 0.0125736)
(0.000373414 -0.000373414 0.0125827)
(0.000280912 -0.00040172 0.0125103)
(0.000174087 -0.000418964 0.0124395)
(5.88321e-05 -0.000427515 0.0124)
(-5.88321e-05 -0.000427515 0.0124)
(-0.000174087 -0.000418964 0.0124395)
(-0.000280912 -0.00040172 0.0125103)
(-0.000373414 -0.000373414 0.0125827)
(-0.000442336 -0.000332176 0.0125736)
(0.000395104 -0.000395104 0.0124259)
(0.000332176 -0.000442336 0.0125736)
(0.000250531 -0.00047683 0.0125961)
(0.000155625 -0.000498594 0.0125763)
(5.25308e-05 -0.000509754 0.0125585)
(-5.25308e-05 -0.000509754 0.0125585)
(-0.000155625 -0.000498594 0.0125763)
(-0.00025053 -0.00047683 0.0125961)
(-0.000332176 -0.000442336 0.0125736)
(-0.000395104 -0.000395104 0.0124259)
(0.000140723 0.000140723 0.0125605)
(0.000127121 0.000175351 0.0127789)
(0.000102435 0.000200811 0.0128553)
(6.59554e-05 0.000218671 0.0128711)
(2.26681e-05 0.00022784 0.0128707)
(-2.26681e-05 0.00022784 0.0128707)
(-6.59555e-05 0.000218671 0.0128711)
(-0.000102435 0.000200811 0.0128553)
(-0.000127121 0.000175351 0.0127789)
(-0.000140723 0.000140723 0.0125605)
(0.000175351 0.000127121 0.0127789)
(0.000159986 0.000159986 0.0128725)
(0.000127763 0.000184577 0.0128606)
(8.21309e-05 0.000200856 0.0128283)
(2.82459e-05 0.000209072 0.0128073)
(-2.82459e-05 0.000209072 0.0128073)
(-8.21309e-05 0.000200856 0.0128283)
(-0.000127764 0.000184577 0.0128606)
(-0.000159986 0.000159986 0.0128725)
(-0.000175351 0.000127121 0.0127789)
(0.000200811 0.000102435 0.0128553)
(0.000184577 0.000127763 0.0128606)
(0.000147207 0.000147207 0.0128013)
(9.44386e-05 0.000159918 0.0127468)
(3.24705e-05 0.000166246 0.0127171)
(-3.24705e-05 0.000166246 0.0127171)
(-9.44385e-05 0.000159918 0.0127468)
(-0.000147207 0.000147207 0.0128013)
(-0.000184577 0.000127764 0.0128606)
(-0.000200811 0.000102435 0.0128553)
(0.000218671 6.59554e-05 0.0128711)
(0.000200856 8.21308e-05 0.0128283)
(0.000159918 9.44386e-05 0.0127468)
(0.000102439 0.000102439 0.012683)
(3.5205e-05 0.000106388 0.0126498)
(-3.5205e-05 0.000106388 0.0126498)
(-0.000102439 0.000102439 0.012683)
(-0.000159918 9.44385e-05 0.0127468)
(-0.000200856 8.21308e-05 0.0128283)
(-0.000218671 6.59554e-05 0.0128711)
(0.00022784 2.26681e-05 0.0128707)
(0.000209072 2.82459e-05 0.0128073)
(0.000166246 3.24705e-05 0.0127171)
(0.000106388 3.5205e-05 0.0126498)
(3.65478e-05 3.65478e-05 0.0126154)
(-3.65478e-05 3.65478e-05 0.0126154)
(-0.000106388 3.5205e-05 0.0126498)
(-0.000166246 3.24705e-05 0.0127171)
(-0.000209072 2.82459e-05 0.0128073)
(-0.00022784 2.26681e-05 0.0128707)
(0.00022784 -2.26681e-05 0.0128707)
(0.000209072 -2.82459e-05 0.0128073)
(0.000166246 -3.24705e-05 0.0127171)
(0.000106388 -3.5205e-05 0.0126498)
(3.65478e-05 -3.65478e-05 0.0126154)
(-3.65478e-05 -3.65478e-05 0.0126154)
(-0.000106388 -3.5205e-05 0.0126498)
(-0.000166246 -3.24705e-05 0.0127171)
(-0.000209072 -2.82459e-05 0.0128073)
(-0.00022784 -2.26681e-05 0.0128707)
(0.000218671 -6.59554e-05 0.0128711)
(0.000200856 -8.21308e-05 0.0128283)
(0.000159918 -9.44385e-05 0.0127468)
(0.000102439 -0.000102439 0.012683)
(3.5205e-05 -0.000106388 0.0126498)
(-3.5205e-05 -0.000106388 0.0126498)
(-0.000102439 -0.000102439 0.012683)
(-0.000159918 -9.44385e-05 0.0127468)
(-0.000200856 -8.21308e-05 0.0128283)
(-0.000218671 -6.59554e-05 0.0128711)
(0.000200811 -0.000102435 0.0128553)
(0.000184577 -0.000127763 0.0128606)
(0.000147207 -0.000147207 0.0128013)
(9.44385e-05 -0.000159918 0.0127468)
(3.24705e-05 -0.000166246 0.0127171)
(-3.24705e-05 -0.000166246 0.0127171)
(-9.44385e-05 -0.000159918 0.0127468)
(-0.000147207 -0.000147207 0.0128013)
(-0.000184577 -0.000127763 0.0128606)
(-0.000200811 -0.000102435 0.0128553)
(0.000175351 -0.000127121 0.0127789)
(0.000159986 -0.000159986 0.0128725)
(0.000127764 -0.000184577 0.0128606)
(8.21308e-05 -0.000200856 0.0128283)
(2.82459e-05 -0.000209072 0.0128073)
(-2.82459e-05 -0.000209072 0.0128073)
(-8.21308e-05 -0.000200856 0.0128283)
(-0.000127763 -0.000184577 0.0128606)
(-0.000159986 -0.000159986 0.0128725)
(-0.000175351 -0.000127121 0.0127789)
(0.000140723 -0.000140723 0.0125605)
(0.000127121 -0.000175351 0.0127789)
(0.000102435 -0.000200811 0.0128553)
(6.59554e-05 -0.000218671 0.0128711)
(2.26681e-05 -0.00022784 0.0128707)
(-2.26681e-05 -0.00022784 0.0128707)
(-6.59554e-05 -0.000218671 0.0128711)
(-0.000102435 -0.000200811 0.0128553)
(-0.000127121 -0.000175351 0.0127789)
(-0.000140723 -0.000140723 0.0125605)
(5.1651e-05 5.1651e-05 0.0125062)
(4.81542e-05 6.6518e-05 0.0127644)
(4.03413e-05 7.80858e-05 0.0128755)
(2.64786e-05 8.65948e-05 0.0129164)
(9.19033e-06 9.09981e-05 0.012929)
(-9.19033e-06 9.09981e-05 0.012929)
(-2.64786e-05 8.65948e-05 0.0129164)
(-4.03412e-05 7.80858e-05 0.0128755)
(-4.81542e-05 6.6518e-05 0.0127644)
(-5.1651e-05 5.1651e-05 0.0125062)
(6.6518e-05 4.81542e-05 0.0127644)
(6.37937e-05 6.37937e-05 0.0129134)
(5.28334e-05 7.59763e-05 0.0129468)
(3.46644e-05 8.43537e-05 0.012946)
(1.20364e-05 8.8646e-05 0.0129409)
(-1.20364e-05 8.8646e-05 0.0129409)
(-3.46643e-05 8.43538e-05 0.012946)
(-5.28334e-05 7.59764e-05 0.0129468)
(-6.37938e-05 6.37938e-05 0.0129134)
(-6.6518e-05 4.81542e-05 0.0127644)
(7.80858e-05 4.03413e-05 0.0128755)
(7.59763e-05 5.28334e-05 0.0129468)
(6.28668e-05 6.28669e-05 0.0129394)
(4.12051e-05 6.96904e-05 0.0129197)
(1.43097e-05 7.316e-05 0.0129074)
(-1.43097e-05 7.316e-05 0.0129074)
(-4.12051e-05 6.96904e-05 0.0129197)
(-6.28668e-05 6.28668e-05 0.0129394)
(-7.59763e-05 5.28334e-05 0.0129468)
(-7.80858e-05 4.03413e-05 0.0128755)
(8.65948e-05 2.64786e-05 0.0129164)
(8.43537e-05 3.46644e-05 0.012946)
(6.96904e-05 4.12051e-05 0.0129197)
(4.56312e-05 4.56312e-05 0.0128922)
(1.5845e-05 4.78707e-05 0.012877)
(-1.5845e-05 4.78707e-05 0.012877)
(-4.56312e-05 4.56312e-05 0.0128922)
(-6.96904e-05 4.12051e-05 0.0129197)
(-8.43537e-05 3.46643e-05 0.012946)
(-8.65948e-05 2.64786e-05 0.0129164)
(9.09981e-05 9.19033e-06 0.012929)
(8.8646e-05 1.20364e-05 0.0129409)
(7.316e-05 1.43097e-05 0.0129074)
(4.78707e-05 1.5845e-05 0.012877)
(1.662e-05 1.662e-05 0.0128606)
(-1.662e-05 1.662e-05 0.0128606)
(-4.78707e-05 1.5845e-05 0.012877)
(-7.316e-05 1.43097e-05 0.0129074)
(-8.8646e-05 1.20364e-05 0.0129409)
(-9.09981e-05 9.19033e-06 0.012929)
(9.09981e-05 -9.19032e-06 0.012929)
(8.8646e-05 -1.20364e-05 0.0129409)
(7.316e-05 -1.43097e-05 0.0129074)
(4.78707e-05 -1.5845e-05 0.012877)
(1.662e-05 -1.662e-05 0.0128606)
(-1.662e-05 -1.662e-05 0.0128606)
(-4.78707e-05 -1.5845e-05 0.012877)
(-7.316e-05 -1.43097e-05 0.0129074)
(-8.8646e-05 -1.20364e-05 0.0129409)
(-9.09981e-05 -9.19033e-06 0.012929)
(8.65948e-05 -2.64786e-05 0.0129164)
(8.43537e-05 -3.46643e-05 0.012946)
(6.96904e-05 -4.12051e-05 0.0129197)
(4.56312e-05 -4.56312e-05 0.0128922)
(1.5845e-05 -4.78707e-05 0.012877)
(-1.5845e-05 -4.78707e-05 0.012877)
(-4.56312e-05 -4.56312e-05 0.0128922)
(-6.96904e-05 -4.12051e-05 0.0129197)
(-8.43537e-05 -3.46643e-05 0.012946)
(-8.65948e-05 -2.64786e-05 0.0129164)
(7.80858e-05 -4.03413e-05 0.0128755)
(7.59764e-05 -5.28334e-05 0.0129468)
(6.28668e-05 -6.28668e-05 0.0129394)
(4.12051e-05 -6.96904e-05 0.0129197)
(1.43097e-05 -7.316e-05 0.0129074)
(-1.43097e-05 -7.316e-05 0.0129074)
(-4.12051e-05 -6.96904e-05 0.0129197)
(-6.28668e-05 -6.28668e-05 0.0129394)
(-7.59763e-05 -5.28334e-05 0.0129468)
(-7.80858e-05 -4.03412e-05 0.0128755)
(6.6518e-05 -4.81542e-05 0.0127644)
(6.37938e-05 -6.37938e-05 0.0129134)
(5.28334e-05 -7.59764e-05 0.0129468)
(3.46643e-05 -8.43537e-05 0.012946)
(1.20364e-05 -8.8646e-05 0.0129409)
(-1.20364e-05 -8.8646e-05 0.0129409)
(-3.46643e-05 -8.43537e-05 0.012946)
(-5.28334e-05 -7.59763e-05 0.0129468)
(-6.37937e-05 -6.37937e-05 0.0129134)
(-6.6518e-05 -4.81542e-05 0.0127644)
(5.1651e-05 -5.1651e-05 0.0125062)
(4.81542e-05 -6.6518e-05 0.0127644)
(4.03413e-05 -7.80858e-05 0.0128755)
(2.64786e-05 -8.65948e-05 0.0129164)
(9.19032e-06 -9.09981e-05 0.012929)
(-9.19033e-06 -9.09981e-05 0.012929)
(-2.64786e-05 -8.65948e-05 0.0129164)
(-4.03412e-05 -7.80858e-05 0.0128755)
(-4.81542e-05 -6.6518e-05 0.0127644)
(-5.1651e-05 -5.1651e-05 0.0125062)
(1.63662e-05 1.63662e-05 0.0124717)
(1.62334e-05 2.26707e-05 0.01274)
(1.43993e-05 2.77053e-05 0.0128622)
(9.7179e-06 3.15305e-05 0.0129121)
(3.42151e-06 3.35182e-05 0.0129296)
(-3.42151e-06 3.35182e-05 0.0129296)
(-9.71789e-06 3.15305e-05 0.0129121)
(-1.43993e-05 2.77053e-05 0.0128622)
(-1.62334e-05 2.26707e-05 0.01274)
(-1.63662e-05 1.63662e-05 0.0124717)
(2.26707e-05 1.62334e-05 0.01274)
(2.32289e-05 2.32289e-05 0.0129083)
(2.01374e-05 2.8848e-05 0.0129597)
(1.35516e-05 3.28251e-05 0.0129724)
(4.76178e-06 3.48815e-05 0.0129744)
(-4.76178e-06 3.48816e-05 0.0129744)
(-1.35516e-05 3.28251e-05 0.0129724)
(-2.01374e-05 2.8848e-05 0.0129597)
(-2.32289e-05 2.32289e-05 0.0129083)
(-2.26707e-05 1.62334e-05 0.01274)
(2.77053e-05 1.43993e-05 0.0128622)
(2.8848e-05 2.01374e-05 0.0129597)
(2.49017e-05 2.49017e-05 0.0129754)
(1.67177e-05 2.8229e-05 0.0129723)
(5.87005e-06 2.99402e-05 0.0129685)
(-5.87005e-06 2.99402e-05 0.0129685)
(-1.67177e-05 2.8229e-05 0.0129723)
(-2.49017e-05 2.49017e-05 0.0129754)
(-2.8848e-05 2.01374e-05 0.0129597)
(-2.77053e-05 1.43993e-05 0.0128622)
(3.15305e-05 9.7179e-06 0.0129121)
(3.28251e-05 1.35516e-05 0.0129724)
(2.8229e-05 1.67177e-05 0.0129723)
(1.89124e-05 1.89124e-05 0.0129631)
(6.6365e-06 2.00353e-05 0.0129572)
(-6.6365e-06 2.00353e-05 0.0129572)
(-1.89124e-05 1.89124e-05 0.0129631)
(-2.8229e-05 1.67177e-05 0.0129723)
(-3.28251e-05 1.35516e-05 0.0129724)
(-3.15305e-05 9.71788e-06 0.0129121)
(3.35182e-05 3.42151e-06 0.0129296)
(3.48816e-05 4.76178e-06 0.0129744)
(2.99402e-05 5.87005e-06 0.0129685)
(2.00353e-05 6.6365e-06 0.0129572)
(7.02764e-06 7.02764e-06 0.0129506)
(-7.02763e-06 7.02764e-06 0.0129506)
(-2.00353e-05 6.63651e-06 0.0129572)
(-2.99402e-05 5.87005e-06 0.0129685)
(-3.48815e-05 4.76177e-06 0.0129744)
(-3.35182e-05 3.4215e-06 0.0129296)
(3.35182e-05 -3.42151e-06 0.0129296)
(3.48815e-05 -4.76177e-06 0.0129744)
(2.99402e-05 -5.87005e-06 0.0129685)
(2.00353e-05 -6.6365e-06 0.0129572)
(7.02765e-06 -7.02763e-06 0.0129506)
(-7.02763e-06 -7.02763e-06 0.0129506)
(-2.00353e-05 -6.63649e-06 0.0129572)
(-2.99402e-05 -5.87005e-06 0.0129685)
(-3.48816e-05 -4.76178e-06 0.0129744)
(-3.35182e-05 -3.42151e-06 0.0129296)
(3.15305e-05 -9.71789e-06 0.0129121)
(3.28251e-05 -1.35516e-05 0.0129724)
(2.8229e-05 -1.67177e-05 0.0129723)
(1.89124e-05 -1.89124e-05 0.0129631)
(6.63651e-06 -2.00353e-05 0.0129572)
(-6.63649e-06 -2.00353e-05 0.0129572)
(-1.89124e-05 -1.89124e-05 0.0129631)
(-2.8229e-05 -1.67177e-05 0.0129723)
(-3.28251e-05 -1.35516e-05 0.0129724)
(-3.15305e-05 -9.71787e-06 0.0129121)
(2.77053e-05 -1.43993e-05 0.0128622)
(2.8848e-05 -2.01374e-05 0.0129597)
(2.49017e-05 -2.49017e-05 0.0129754)
(1.67177e-05 -2.8229e-05 0.0129723)
(5.87005e-06 -2.99402e-05 0.0129685)
(-5.87005e-06 -2.99402e-05 0.0129685)
(-1.67177e-05 -2.8229e-05 0.0129723)
(-2.49017e-05 -2.49017e-05 0.0129754)
(-2.8848e-05 -2.01374e-05 0.0129597)
(-2.77053e-05 -1.43993e-05 0.0128622)
(2.26707e-05 -1.62334e-05 0.01274)
(2.3229e-05 -2.32289e-05 0.0129083)
(2.01374e-05 -2.8848e-05 0.0129597)
(1.35516e-05 -3.28251e-05 0.0129724)
(4.76177e-06 -3.48815e-05 0.0129744)
(-4.76178e-06 -3.48815e-05 0.0129744)
(-1.35516e-05 -3.28251e-05 0.0129724)
(-2.01374e-05 -2.8848e-05 0.0129597)
(-2.32289e-05 -2.32289e-05 0.0129083)
(-2.26707e-05 -1.62334e-05 0.01274)
(1.63662e-05 -1.63662e-05 0.0124717)
(1.62334e-05 -2.26707e-05 0.01274)
(1.43993e-05 -2.77053e-05 0.0128622)
(9.71788e-06 -3.15305e-05 0.0129121)
(3.4215e-06 -3.35182e-05 0.0129296)
(-3.42151e-06 -3.35182e-05 0.0129296)
(-9.71788e-06 -3.15305e-05 0.0129121)
(-1.43993e-05 -2.77053e-05 0.0128622)
(-1.62334e-05 -2.26707e-05 0.01274)
(-1.63662e-05 -1.63662e-05 0.0124717)
(4.27595e-06 4.27594e-06 0.0124599)
(4.59147e-06 6.59982e-06 0.0127308)
(4.36414e-06 8.50571e-06 0.0128566)
(3.03465e-06 1.00277e-05 0.0129096)
(1.08682e-06 1.08195e-05 0.0129288)
(-1.08681e-06 1.08195e-05 0.0129288)
(-3.03464e-06 1.00277e-05 0.0129096)
(-4.36414e-06 8.50572e-06 0.0128566)
(-4.59148e-06 6.59983e-06 0.0127308)
(-4.27595e-06 4.27594e-06 0.0124599)
(6.59982e-06 4.59148e-06 0.0127308)
(7.30418e-06 7.30419e-06 0.0129054)
(6.67055e-06 9.58191e-06 0.0129634)
(4.61474e-06 1.12595e-05 0.0129812)
(1.64336e-06 1.21397e-05 0.012986)
(-1.64335e-06 1.21397e-05 0.012986)
(-4.61472e-06 1.12595e-05 0.0129812)
(-6.67055e-06 9.58192e-06 0.0129634)
(-7.3042e-06 7.30419e-06 0.0129054)
(-6.59982e-06 4.59148e-06 0.0127308)
(8.5057e-06 4.36414e-06 0.0128566)
(9.58191e-06 6.67055e-06 0.0129634)
(8.67937e-06 8.67937e-06 0.012988)
(5.98448e-06 1.01356e-05 0.0129915)
(2.1276e-06 1.08977e-05 0.0129911)
(-2.12758e-06 1.08977e-05 0.0129911)
(-5.98447e-06 1.01356e-05 0.0129915)
(-8.67936e-06 8.67937e-06 0.012988)
(-9.58191e-06 6.67055e-06 0.0129634)
(-8.50571e-06 4.36415e-06 0.0128566)
(1.00277e-05 3.03465e-06 0.0129096)
(1.12595e-05 4.61474e-06 0.0129812)
(1.01356e-05 5.98449e-06 0.0129915)
(6.96878e-06 6.96878e-06 0.0129899)
(2.47492e-06 7.48175e-06 0.0129879)
(-2.47491e-06 7.48175e-06 0.0129879)
(-6.96877e-06 6.96877e-06 0.0129899)
(-1.01356e-05 5.98448e-06 0.0129915)
(-1.12595e-05 4.61473e-06 0.0129812)
(-1.00277e-05 3.03464e-06 0.0129096)
(1.08195e-05 1.08682e-06 0.0129288)
(1.21397e-05 1.64337e-06 0.012986)
(1.08977e-05 2.1276e-06 0.0129911)
(7.48175e-06 2.47492e-06 0.0129879)
(2.65561e-06 2.65562e-06 0.0129854)
(-2.6556e-06 2.65562e-06 0.0129854)
(-7.48174e-06 2.47492e-06 0.0129879)
(-1.08977e-05 2.1276e-06 0.0129911)
(-1.21397e-05 1.64336e-06 0.012986)
(-1.08195e-05 1.08682e-06 0.0129288)
(1.08195e-05 -1.08681e-06 0.0129288)
(1.21397e-05 -1.64335e-06 0.012986)
(1.08977e-05 -2.12759e-06 0.0129911)
(7.48175e-06 -2.47491e-06 0.0129879)
(2.65561e-06 -2.6556e-06 0.0129854)
(-2.6556e-06 -2.6556e-06 0.0129854)
(-7.48174e-06 -2.47491e-06 0.0129879)
(-1.08977e-05 -2.12759e-06 0.0129911)
(-1.21397e-05 -1.64336e-06 0.012986)
(-1.08195e-05 -1.08682e-06 0.0129288)
(1.00277e-05 -3.03464e-06 0.0129096)
(1.12595e-05 -4.61473e-06 0.0129812)
(1.01356e-05 -5.98447e-06 0.0129915)
(6.96878e-06 -6.96876e-06 0.0129899)
(2.47492e-06 -7.48174e-06 0.0129879)
(-2.47491e-06 -7.48174e-06 0.0129879)
(-6.96876e-06 -6.96876e-06 0.0129899)
(-1.01356e-05 -5.98447e-06 0.0129915)
(-1.12595e-05 -4.61472e-06 0.0129812)
(-1.00277e-05 -3.03464e-06 0.0129096)
(8.50571e-06 -4.36414e-06 0.0128566)
(9.58191e-06 -6.67055e-06 0.0129634)
(8.67937e-06 -8.67935e-06 0.012988)
(5.98448e-06 -1.01356e-05 0.0129915)
(2.12759e-06 -1.08977e-05 0.0129911)
(-2.12759e-06 -1.08977e-05 0.0129911)
(-5.98447e-06 -1.01356e-05 0.0129915)
(-8.67936e-06 -8.67936e-06 0.012988)
(-9.58191e-06 -6.67054e-06 0.0129634)
(-8.5057e-06 -4.36413e-06 0.0128566)
(6.59983e-06 -4.59148e-06 0.0127308)
(7.3042e-06 -7.30419e-06 0.0129054)
(6.67055e-06 -9.58191e-06 0.0129634)
(4.61472e-06 -1.12595e-05 0.0129812)
(1.64336e-06 -1.21397e-05 0.012986)
(-1.64335e-06 -1.21397e-05 0.012986)
(-4.61472e-06 -1.12595e-05 0.0129812)
(-6.67055e-06 -9.58191e-06 0.0129634)
(-7.30419e-06 -7.30418e-06 0.0129054)
(-6.59982e-06 -4.59146e-06 0.0127308)
(4.27596e-06 -4.27595e-06 0.0124599)
(4.59148e-06 -6.59983e-06 0.0127308)
(4.36414e-06 -8.50572e-06 0.0128566)
(3.03464e-06 -1.00277e-05 0.0129096)
(1.08682e-06 -1.08195e-05 0.0129288)
(-1.08682e-06 -1.08195e-05 0.0129288)
(-3.03464e-06 -1.00277e-05 0.0129096)
(-4.36413e-06 -8.50571e-06 0.0128566)
(-4.59146e-06 -6.59981e-06 0.0127308)
(-4.27595e-06 -4.27595e-06 0.0124599)
(1.02839e-06 1.02839e-06 0.0124555)
(1.20314e-06 1.77772e-06 0.012727)
(1.22882e-06 2.40327e-06 0.0128539)
(8.76953e-07 2.92895e-06 0.0129079)
(3.19946e-07 3.20182e-06 0.0129277)
(-3.19941e-07 3.20181e-06 0.0129277)
(-8.7695e-07 2.92895e-06 0.0129079)
(-1.22882e-06 2.40327e-06 0.0128539)
(-1.20314e-06 1.77772e-06 0.012727)
(-1.02839e-06 1.02839e-06 0.0124555)
(1.77773e-06 1.20314e-06 0.012727)
(2.12264e-06 2.12264e-06 0.0129036)
(2.03427e-06 2.92233e-06 0.012964)
(1.44085e-06 3.5337e-06 0.0129837)
(5.19573e-07 3.85835e-06 0.0129895)
(-5.19571e-07 3.85835e-06 0.0129895)
(-1.44085e-06 3.53369e-06 0.0129837)
(-2.03426e-06 2.92233e-06 0.012964)
(-2.12264e-06 2.12264e-06 0.0129036)
(-1.77772e-06 1.20314e-06 0.012727)
(2.40328e-06 1.22881e-06 0.0128539)
(2.92233e-06 2.03427e-06 0.012964)
(2.76642e-06 2.76642e-06 0.0129919)
(1.9529e-06 3.31706e-06 0.012998)
(7.02224e-07 3.60988e-06 0.012999)
(-7.02225e-07 3.60987e-06 0.012999)
(-1.9529e-06 3.31706e-06 0.012998)
(-2.76642e-06 2.76642e-06 0.0129919)
(-2.92233e-06 2.03427e-06 0.012964)
(-2.40327e-06 1.22882e-06 0.0128539)
(2.92895e-06 8.76951e-07 0.0129079)
(3.5337e-06 1.44086e-06 0.0129837)
(3.31706e-06 1.9529e-06 0.012998)
(2.33456e-06 2.33456e-06 0.0129994)
(8.38304e-07 2.5371e-06 0.0129991)
(-8.38305e-07 2.5371e-06 0.0129991)
(-2.33456e-06 2.33456e-06 0.0129994)
(-3.31706e-06 1.9529e-06 0.012998)
(-3.53369e-06 1.44085e-06 0.0129837)
(-2.92895e-06 8.76955e-07 0.0129079)
(3.20181e-06 3.19947e-07 0.0129277)
(3.85835e-06 5.19574e-07 0.0129895)
(3.60988e-06 7.02224e-07 0.012999)
(2.5371e-06 8.38305e-07 0.0129991)
(9.10497e-07 9.10498e-07 0.0129983)
(-9.10495e-07 9.105e-07 0.0129983)
(-2.53709e-06 8.38308e-07 0.0129991)
(-3.60987e-06 7.02227e-07 0.012999)
(-3.85834e-06 5.19574e-07 0.0129895)
(-3.20181e-06 3.19948e-07 0.0129277)
(3.20181e-06 -3.19942e-07 0.0129277)
(3.85835e-06 -5.19569e-07 0.0129895)
(3.60987e-06 -7.02222e-07 0.012999)
(2.5371e-06 -8.38302e-07 0.0129991)
(9.10499e-07 -9.10494e-07 0.0129983)
(-9.10495e-07 -9.10494e-07 0.0129983)
(-2.53709e-06 -8.38301e-07 0.0129991)
(-3.60987e-06 -7.02219e-07 0.012999)
(-3.85834e-06 -5.19568e-07 0.0129895)
(-3.20181e-06 -3.19946e-07 0.0129277)
(2.92895e-06 -8.7695e-07 0.0129079)
(3.5337e-06 -1.44085e-06 0.0129837)
(3.31706e-06 -1.95289e-06 0.012998)
(2.33456e-06 -2.33456e-06 0.0129994)
(8.38306e-07 -2.53709e-06 0.0129991)
(-8.38302e-07 -2.53709e-06 0.0129991)
(-2.33456e-06 -2.33456e-06 0.0129994)
(-3.31705e-06 -1.95289e-06 0.012998)
(-3.53369e-06 -1.44085e-06 0.0129837)
(-2.92895e-06 -8.76955e-07 0.0129079)
(2.40327e-06 -1.22881e-06 0.0128539)
(2.92233e-06 -2.03427e-06 0.012964)
(2.76642e-06 -2.76642e-06 0.0129919)
(1.9529e-06 -3.31706e-06 0.012998)
(7.02226e-07 -3.60987e-06 0.012999)
(-7.02221e-07 -3.60987e-06 0.012999)
(-1.95289e-06 -3.31706e-06 0.012998)
(-2.76641e-06 -2.76642e-06 0.0129919)
(-2.92233e-06 -2.03426e-06 0.012964)
(-2.40327e-06 -1.22882e-06 0.0128539)
(1.77772e-06 -1.20314e-06 0.012727)
(2.12264e-06 -2.12265e-06 0.0129036)
(2.03427e-06 -2.92233e-06 0.012964)
(1.44086e-06 -3.53369e-06 0.0129837)
(5.19572e-07 -3.85834e-06 0.0129895)
(-5.19571e-07 -3.85834e-06 0.0129895)
(-1.44085e-06 -3.53369e-06 0.0129837)
(-2.03426e-06 -2.92232e-06 0.012964)
(-2.12264e-06 -2.12264e-06 0.0129036)
(-1.77772e-06 -1.20314e-06 0.012727)
(1.02838e-06 -1.02839e-06 0.0124555)
(1.20314e-06 -1.77772e-06 0.012727)
(1.22882e-06 -2.40326e-06 0.0128539)
(8.76956e-07 -2.92895e-06 0.0129079)
(3.19943e-07 -3.20181e-06 0.0129277)
(-3.19943e-07 -3.20181e-06 0.0129277)