/*--------------------------------*- C++ -*----------------------------------*\
| =========                 |                                                 |
| \\      /  F ield         | OpenFOAM: The Open Source CFD Toolbox           |
|  \\    /   O peration     | Version:  2412                                  |
|   \\  /    A nd           | Website:  www.openfoam.com                      |
|    \\/     M anipulation  |                                                 |
\*---------------------------------------------------------------------------*/
FoamFile
{
    version     2.0;
    format      ascii;
    arch        "LSB;label=32;scalar=64";
    class       surfaceScalarField;
    location    "5.3";
    object      phi;
}
// * * * * * * * * * * * * * * * * * * * * * * * * * * * * * * * * * * * * * //

dimensions      [0 3 -1 0 0 0 0];

oriented        oriented;

internalField   nonuniform List<scalar> 
43700
(
1.8618e-07
1.8618e-07
5.49749e-07
-2.26046e-07
-2.26046e-07
1.3791e-07
1.65505e-07
5.94134e-07
-2.01985e-07
9.13883e-08
1.52078e-07
6.25682e-07
-1.91807e-07
4.5356e-08
1.4307e-07
6.45909e-07
-1.83235e-07
1.96306e-17
1.38718e-07
6.55833e-07
-1.79266e-07
-4.5356e-08
1.38718e-07
6.55833e-07
-1.79266e-07
-9.13883e-08
1.4307e-07
6.45909e-07
-1.83235e-07
-1.3791e-07
1.52078e-07
6.25682e-07
-1.91807e-07
-1.8618e-07
1.65505e-07
5.94134e-07
-2.01985e-07
1.8618e-07
5.49749e-07
-2.26046e-07
-2.26046e-07
1.65505e-07
1.3791e-07
5.94134e-07
-2.01985e-07
1.23097e-07
1.23097e-07
6.30659e-07
8.10407e-08
1.11736e-07
6.56089e-07
4.00977e-08
1.04107e-07
6.72402e-07
4.47415e-16
1.00364e-07
6.80424e-07
-4.00977e-08
1.00364e-07
6.80424e-07
-8.10407e-08
1.04107e-07
6.72402e-07
-1.23097e-07
1.11736e-07
6.56089e-07
-1.65505e-07
1.23097e-07
6.30659e-07
1.3791e-07
5.94134e-07
-2.01985e-07
1.52078e-07
9.13883e-08
6.25682e-07
-1.91807e-07
1.11736e-07
8.10407e-08
6.56089e-07
7.30111e-08
7.30111e-08
6.77322e-07
3.59935e-08
6.76192e-08
6.91069e-07
2.64046e-16
6.49616e-08
6.97873e-07
-3.59935e-08
6.49616e-08
6.97873e-07
-7.30111e-08
6.76192e-08
6.91069e-07
-1.11736e-07
7.30111e-08
6.77322e-07
-1.52078e-07
8.10407e-08
6.56089e-07
9.13883e-08
6.25682e-07
-1.91807e-07
1.4307e-07
4.5356e-08
6.45909e-07
-1.83235e-07
1.04107e-07
4.00977e-08
6.72402e-07
6.76192e-08
3.59935e-08
6.91069e-07
3.32288e-08
3.32288e-08
7.03283e-07
-1.60565e-16
3.1863e-08
7.09369e-07
-3.32288e-08
3.1863e-08
7.09369e-07
-6.76192e-08
3.32288e-08
7.03283e-07
-1.04107e-07
3.59935e-08
6.91069e-07
-1.4307e-07
4.00977e-08
6.72402e-07
4.5356e-08
6.45909e-07
-1.83235e-07
1.38718e-07
1.19071e-16
6.55833e-07
-1.79266e-07
1.00364e-07
9.41022e-17
6.80424e-07
6.49616e-08
-2.27803e-17
6.97873e-07
3.1863e-08
-1.49901e-18
7.09369e-07
-1.59988e-16
-4.87041e-17
7.15119e-07
-3.1863e-08
-2.19752e-16
7.15119e-07
-6.49616e-08
-1.85676e-16
7.09369e-07
-1.00364e-07
-1.41466e-16
6.97873e-07
-1.38718e-07
-2.82634e-16
6.80424e-07
5.93473e-17
6.55833e-07
-1.79266e-07
1.38718e-07
-4.5356e-08
6.55833e-07
-1.79266e-07
1.00364e-07
-4.00977e-08
6.80424e-07
6.49616e-08
-3.59935e-08
6.97873e-07
3.1863e-08
-3.32288e-08
7.09369e-07
-3.93242e-16
-3.1863e-08
7.15119e-07
-3.1863e-08
-3.1863e-08
7.15119e-07
-6.49616e-08
-3.32288e-08
7.09369e-07
-1.00364e-07
-3.59935e-08
6.97873e-07
-1.38718e-07
-4.00977e-08
6.80424e-07
-4.5356e-08
6.55833e-07
-1.79266e-07
1.4307e-07
-9.13883e-08
6.45909e-07
-1.83235e-07
1.04107e-07
-8.10407e-08
6.72402e-07
6.76192e-08
-7.30111e-08
6.91069e-07
3.32288e-08
-6.76192e-08
7.03283e-07
-1.10874e-16
-6.49616e-08
7.09369e-07
-3.32288e-08
-6.49616e-08
7.09369e-07
-6.76192e-08
-6.76192e-08
7.03283e-07
-1.04107e-07
-7.30111e-08
6.91069e-07
-1.4307e-07
-8.10407e-08
6.72402e-07
-9.13883e-08
6.45909e-07
-1.83235e-07
1.52078e-07
-1.3791e-07
6.25682e-07
-1.91807e-07
1.11736e-07
-1.23097e-07
6.56089e-07
7.30111e-08
-1.11736e-07
6.77322e-07
3.59935e-08
-1.04107e-07
6.91069e-07
-1.4903e-16
-1.00364e-07
6.97873e-07
-3.59935e-08
-1.00364e-07
6.97873e-07
-7.30111e-08
-1.04107e-07
6.91069e-07
-1.11736e-07
-1.11736e-07
6.77322e-07
-1.52078e-07
-1.23097e-07
6.56089e-07
-1.3791e-07
6.25682e-07
-1.91807e-07
1.65505e-07
-1.8618e-07
5.94134e-07
-2.01985e-07
1.23097e-07
-1.65505e-07
6.30659e-07
8.10407e-08
-1.52078e-07
6.56089e-07
4.00977e-08
-1.4307e-07
6.72402e-07
-8.95187e-17
-1.38718e-07
6.80424e-07
-4.00977e-08
-1.38718e-07
6.80424e-07
-8.10407e-08
-1.4307e-07
6.72402e-07
-1.23097e-07
-1.52078e-07
6.56089e-07
-1.65505e-07
-1.65505e-07
6.30659e-07
-1.8618e-07
5.94134e-07
-2.01985e-07
1.8618e-07
5.49749e-07
-2.26046e-07
-2.26046e-07
1.3791e-07
5.94134e-07
-2.01985e-07
9.13883e-08
6.25682e-07
-1.91807e-07
4.5356e-08
6.45909e-07
-1.83235e-07
4.09664e-16
6.55833e-07
-1.79266e-07
-4.5356e-08
6.55833e-07
-1.79266e-07
-9.13883e-08
6.45909e-07
-1.83235e-07
-1.3791e-07
6.25682e-07
-1.91807e-07
-1.8618e-07
5.94134e-07
-2.01985e-07
5.49749e-07
-2.26046e-07
-2.26046e-07
1.13567e-07
1.13567e-07
5.84389e-07
-1.30888e-07
-1.30888e-07
8.90318e-08
1.11073e-07
6.3799e-07
-1.30393e-07
6.0807e-08
1.08172e-07
6.74876e-07
-1.29141e-07
3.07203e-08
1.05593e-07
6.97803e-07
-1.27401e-07
2.29357e-18
1.04316e-07
7.08831e-07
-1.26594e-07
-3.07203e-08
1.04316e-07
7.08831e-07
-1.26594e-07
-6.0807e-08
1.05593e-07
6.97803e-07
-1.27401e-07
-8.90318e-08
1.08172e-07
6.74876e-07
-1.29141e-07
-1.13567e-07
1.11073e-07
6.3799e-07
-1.30393e-07
1.13567e-07
5.84389e-07
-1.30888e-07
-1.30888e-07
1.11073e-07
8.90318e-08
6.3799e-07
-1.30393e-07
8.58205e-08
8.58205e-08
6.81163e-07
5.80685e-08
8.26508e-08
7.09362e-07
2.92042e-08
8.01976e-08
7.26662e-07
4.58882e-16
7.89681e-08
7.34976e-07
-2.92042e-08
7.89681e-08
7.34976e-07
-5.80685e-08
8.01976e-08
7.26662e-07
-8.58205e-08
8.26508e-08
7.09362e-07
-1.11073e-07
8.58205e-08
6.81163e-07
8.90318e-08
6.3799e-07
-1.30393e-07
1.08172e-07
6.0807e-08
6.74876e-07
-1.29141e-07
8.26508e-08
5.80685e-08
7.09362e-07
5.55604e-08
5.55604e-08
7.31503e-07
2.78726e-08
5.37427e-08
7.45211e-07
2.28693e-16
5.28357e-08
7.51878e-07
-2.78726e-08
5.28357e-08
7.51878e-07
-5.55604e-08
5.37427e-08
7.45211e-07
-8.26508e-08
5.55604e-08
7.31503e-07
-1.08172e-07
5.80685e-08
7.09362e-07
6.0807e-08
6.74876e-07
-1.29141e-07
1.05593e-07
3.07203e-08
6.97803e-07
-1.27401e-07
8.01976e-08
2.92042e-08
7.26662e-07
5.37427e-08
2.78726e-08
7.45211e-07
2.69317e-08
2.69317e-08
7.56906e-07
1.8398e-16
2.64629e-08
7.62674e-07
-2.69317e-08
2.64629e-08
7.62674e-07
-5.37427e-08
2.69317e-08
7.56906e-07
-8.01976e-08
2.78726e-08
7.45211e-07
-1.05593e-07
2.92042e-08
7.26662e-07
3.07203e-08
6.97803e-07
-1.27401e-07
1.04316e-07
-4.32182e-16
7.08831e-07
-1.26594e-07
7.89681e-08
4.53177e-16
7.34976e-07
5.28357e-08
4.00249e-16
7.51878e-07
2.64629e-08
1.59626e-16
7.62674e-07
6.05536e-16
3.56673e-16
7.68044e-07
-2.64629e-08
5.84933e-16
7.68044e-07
-5.28357e-08
5.67059e-16
7.62674e-07
-7.89681e-08
4.40144e-16
7.51878e-07
-1.04316e-07
8.25058e-17
7.34976e-07
-2.47467e-17
7.08831e-07
-1.26594e-07
1.04316e-07
-3.07203e-08
7.08831e-07
-1.26594e-07
7.89681e-08
-2.92042e-08
7.34976e-07
5.28357e-08
-2.78726e-08
7.51878e-07
2.64629e-08
-2.69317e-08
7.62674e-07
6.83918e-16
-2.64629e-08
7.68044e-07
-2.64629e-08
-2.64629e-08
7.68044e-07
-5.28357e-08
-2.69317e-08
7.62674e-07
-7.89681e-08
-2.78726e-08
7.51878e-07
-1.04316e-07
-2.92042e-08
7.34976e-07
-3.07203e-08
7.08831e-07
-1.26594e-07
1.05593e-07
-6.0807e-08
6.97803e-07
-1.27401e-07
8.01976e-08
-5.80685e-08
7.26662e-07
5.37427e-08
-5.55604e-08
7.45211e-07
2.69317e-08
-5.37427e-08
7.56906e-07
8.9332e-16
-5.28357e-08
7.62674e-07
-2.69317e-08
-5.28357e-08
7.62674e-07
-5.37427e-08
-5.37427e-08
7.56906e-07
-8.01976e-08
-5.55604e-08
7.45211e-07
-1.05593e-07
-5.80685e-08
7.26662e-07
-6.0807e-08
6.97803e-07
-1.27401e-07
1.08172e-07
-8.90318e-08
6.74876e-07
-1.29141e-07
8.26508e-08
-8.58205e-08
7.09362e-07
5.55604e-08
-8.26508e-08
7.31503e-07
2.78726e-08
-8.01976e-08
7.45211e-07
4.96988e-16
-7.89681e-08
7.51878e-07
-2.78726e-08
-7.89681e-08
7.51878e-07
-5.55604e-08
-8.01976e-08
7.45211e-07
-8.26508e-08
-8.26508e-08
7.31503e-07
-1.08172e-07
-8.58205e-08
7.09362e-07
-8.90318e-08
6.74876e-07
-1.29141e-07
1.11073e-07
-1.13567e-07
6.3799e-07
-1.30393e-07
8.58205e-08
-1.11073e-07
6.81163e-07
5.80685e-08
-1.08172e-07
7.09362e-07
2.92042e-08
-1.05593e-07
7.26662e-07
-2.87703e-16
-1.04316e-07
7.34976e-07
-2.92042e-08
-1.04316e-07
7.34976e-07
-5.80685e-08
-1.05593e-07
7.26662e-07
-8.58205e-08
-1.08172e-07
7.09362e-07
-1.11073e-07
-1.11073e-07
6.81163e-07
-1.13567e-07
6.3799e-07
-1.30393e-07
1.13567e-07
5.84389e-07
-1.30888e-07
-1.30888e-07
8.90318e-08
6.3799e-07
-1.30393e-07
6.0807e-08
6.74876e-07
-1.29141e-07
3.07203e-08
6.97803e-07
-1.27401e-07
-4.05003e-16
7.08831e-07
-1.26594e-07
-3.07203e-08
7.08831e-07
-1.26594e-07
-6.0807e-08
6.97803e-07
-1.27401e-07
-8.90318e-08
6.74876e-07
-1.29141e-07
-1.13567e-07
6.3799e-07
-1.30393e-07
5.84389e-07
-1.30888e-07
-1.30888e-07
7.49275e-08
7.49275e-08
5.93268e-07
-7.93669e-08
-7.93669e-08
6.26859e-08
7.88376e-08
6.55739e-07
-8.4345e-08
4.46943e-08
8.06217e-08
6.99017e-07
-8.67702e-08
2.31756e-08
8.1188e-08
7.26011e-07
-8.78776e-08
-7.83906e-16
8.13863e-08
7.39002e-07
-8.83808e-08
-2.31756e-08
8.13863e-08
7.39002e-07
-8.83808e-08
-4.46943e-08
8.1188e-08
7.26011e-07
-8.78776e-08
-6.26859e-08
8.06217e-08
6.99017e-07
-8.67702e-08
-7.49275e-08
7.88376e-08
6.55739e-07
-8.4345e-08
7.49275e-08
5.93268e-07
-7.93669e-08
-7.93669e-08
7.88376e-08
6.26859e-08
6.55739e-07
-8.4345e-08
6.53424e-08
6.53424e-08
7.08153e-07
4.6402e-08
6.64499e-08
7.42474e-07
2.40152e-08
6.67021e-08
7.63535e-07
1.59749e-15
6.67351e-08
7.73643e-07
-2.40152e-08
6.67351e-08
7.73643e-07
-4.6402e-08
6.67021e-08
7.63535e-07
-6.53424e-08
6.64499e-08
7.42474e-07
-7.88376e-08
6.53424e-08
7.08153e-07
6.26859e-08
6.55739e-07
-8.4345e-08
8.06217e-08
4.46943e-08
6.99017e-07
-8.67702e-08
6.64499e-08
4.6402e-08
7.42474e-07
4.70377e-08
4.70377e-08
7.70327e-07
2.4315e-08
4.71329e-08
7.87503e-07
1.15021e-15
4.71055e-08
7.95823e-07
-2.4315e-08
4.71055e-08
7.95823e-07
-4.70377e-08
4.71329e-08
7.87503e-07
-6.64499e-08
4.70377e-08
7.70327e-07
-8.06217e-08
4.6402e-08
7.42474e-07
4.46943e-08
6.99017e-07
-8.67702e-08
8.1188e-08
2.31756e-08
7.26011e-07
-8.78776e-08
6.67021e-08
2.40152e-08
7.63535e-07
4.71329e-08
2.4315e-08
7.87503e-07
2.4348e-08
2.4348e-08
8.02475e-07
8.94988e-16
2.43227e-08
8.09805e-07
-2.4348e-08
2.43227e-08
8.09805e-07
-4.71329e-08
2.4348e-08
8.02475e-07
-6.67021e-08
2.4315e-08
7.87503e-07
-8.1188e-08
2.40152e-08
7.63535e-07
2.31756e-08
7.26011e-07
-8.78776e-08
8.13863e-08
-3.69852e-16
7.39002e-07
-8.83808e-08
6.67351e-08
1.98137e-15
7.73643e-07
4.71055e-08
1.68323e-15
7.95823e-07
2.43227e-08
1.10801e-15
8.09805e-07
7.96272e-16
9.14426e-16
8.1669e-07
-2.43227e-08
9.04052e-16
8.1669e-07
-4.71055e-08
5.63097e-16
8.09805e-07
-6.67351e-08
1.68256e-16
7.95823e-07
-8.13863e-08
-1.27869e-15
7.73643e-07
-1.28358e-15
7.39002e-07
-8.83808e-08
8.13863e-08
-2.31756e-08
7.39002e-07
-8.83808e-08
6.67351e-08
-2.40152e-08
7.73643e-07
4.71055e-08
-2.4315e-08
7.95823e-07
2.43227e-08
-2.4348e-08
8.09805e-07
5.85569e-16
-2.43227e-08
8.1669e-07
-2.43227e-08
-2.43227e-08
8.1669e-07
-4.71055e-08
-2.4348e-08
8.09805e-07
-6.67351e-08
-2.4315e-08
7.95823e-07
-8.13863e-08
-2.40152e-08
7.73643e-07
-2.31756e-08
7.39002e-07
-8.83808e-08
8.1188e-08
-4.46943e-08
7.26011e-07
-8.78776e-08
6.67021e-08
-4.6402e-08
7.63535e-07
4.71329e-08
-4.70377e-08
7.87503e-07
2.4348e-08
-4.71329e-08
8.02475e-07
4.47276e-16
-4.71055e-08
8.09805e-07
-2.4348e-08
-4.71055e-08
8.09805e-07
-4.71329e-08
-4.71329e-08
8.02475e-07
-6.67021e-08
-4.70377e-08
7.87503e-07
-8.1188e-08
-4.6402e-08
7.63535e-07
-4.46943e-08
7.26011e-07
-8.78776e-08
8.06217e-08
-6.26859e-08
6.99017e-07
-8.67702e-08
6.64499e-08
-6.53424e-08
7.42474e-07
4.70377e-08
-6.64499e-08
7.70327e-07
2.4315e-08
-6.67021e-08
7.87503e-07
7.91463e-17
-6.67351e-08
7.95823e-07
-2.4315e-08
-6.67351e-08
7.95823e-07
-4.70377e-08
-6.67021e-08
7.87503e-07
-6.64499e-08
-6.64499e-08
7.70327e-07
-8.06217e-08
-6.53424e-08
7.42474e-07
-6.2686e-08
6.99017e-07
-8.67702e-08
7.88376e-08
-7.49275e-08
6.55739e-07
-8.4345e-08
6.53424e-08
-7.88376e-08
7.08153e-07
4.6402e-08
-8.06217e-08
7.42474e-07
2.40152e-08
-8.1188e-08
7.63535e-07
-1.21378e-15
-8.13863e-08
7.73643e-07
-2.40152e-08
-8.13863e-08
7.73643e-07
-4.6402e-08
-8.1188e-08
7.63535e-07
-6.53424e-08
-8.06217e-08
7.42474e-07
-7.88376e-08
-7.88376e-08
7.08153e-07
-7.49275e-08
6.55739e-07
-8.4345e-08
7.49275e-08
5.93268e-07
-7.93669e-08
-7.93669e-08
6.26859e-08
6.55739e-07
-8.4345e-08
4.46943e-08
6.99017e-07
-8.67702e-08
2.31756e-08
7.26011e-07
-8.78776e-08
-9.86699e-16
7.39002e-07
-8.83808e-08
-2.31756e-08
7.39002e-07
-8.83808e-08
-4.46943e-08
7.26011e-07
-8.78776e-08
-6.26859e-08
6.99017e-07
-8.67702e-08
-7.49275e-08
6.55739e-07
-8.4345e-08
5.93268e-07
-7.93669e-08
-7.93669e-08
2.96647e-08
2.96647e-08
5.92328e-07
-2.91946e-08
-2.91946e-08
2.65876e-08
3.43972e-08
6.58298e-07
-3.38786e-08
1.9828e-08
3.75007e-08
7.04834e-07
-3.65589e-08
1.057e-08
3.9327e-08
7.3426e-07
-3.83172e-08
-2.56511e-16
4.01935e-08
7.48528e-07
-3.91502e-08
-1.057e-08
4.01935e-08
7.48528e-07
-3.91502e-08
-1.9828e-08
3.9327e-08
7.3426e-07
-3.83172e-08
-2.65876e-08
3.75007e-08
7.04834e-07
-3.65589e-08
-2.96647e-08
3.43972e-08
6.58298e-07
-3.38786e-08
2.96647e-08
5.92328e-07
-2.91946e-08
-2.91946e-08
3.43972e-08
2.65876e-08
6.58298e-07
-3.38786e-08
3.05531e-08
3.05531e-08
7.15842e-07
2.27577e-08
3.32612e-08
7.54509e-07
1.21121e-08
3.48382e-08
7.78669e-07
9.74095e-16
3.55698e-08
7.90378e-07
-1.21121e-08
3.55698e-08
7.90378e-07
-2.27577e-08
3.48382e-08
7.78669e-07
-3.05531e-08
3.32612e-08
7.54509e-07
-3.43972e-08
3.05531e-08
7.15842e-07
2.65876e-08
6.58298e-07
-3.38786e-08
3.75007e-08
1.9828e-08
7.04834e-07
-3.65589e-08
3.32612e-08
2.27577e-08
7.54509e-07
2.47265e-08
2.47265e-08
7.87397e-07
1.31443e-08
2.58611e-08
8.08062e-07
8.86325e-16
2.63776e-08
8.1816e-07
-1.31443e-08
2.63776e-08
8.1816e-07
-2.47265e-08
2.58611e-08
8.08062e-07
-3.32612e-08
2.47265e-08
7.87397e-07
-3.75007e-08
2.27577e-08
7.54509e-07
1.9828e-08
7.04834e-07
-3.65589e-08
3.9327e-08
1.057e-08
7.3426e-07
-3.83172e-08
3.48382e-08
1.21121e-08
7.78669e-07
2.58611e-08
1.31443e-08
8.08062e-07
1.37356e-08
1.37356e-08
8.26726e-07
6.92999e-16
1.40016e-08
8.35916e-07
-1.37356e-08
1.40016e-08
8.35916e-07
-2.58611e-08
1.37356e-08
8.26726e-07
-3.48382e-08
1.31443e-08
8.08062e-07
-3.9327e-08
1.21121e-08
7.78669e-07
1.057e-08
7.3426e-07
-3.83172e-08
4.01935e-08
9.53454e-16
7.48528e-07
-3.91502e-08
3.55698e-08
1.16123e-15
7.90378e-07
2.63776e-08
7.3684e-16
8.1816e-07
1.40016e-08
6.90538e-16
8.35916e-07
7.57099e-16
8.23955e-16
8.44693e-07
-1.40016e-08
1.14052e-15
8.44693e-07
-2.63776e-08
1.22515e-15
8.35916e-07
-3.55698e-08
9.83405e-16
8.1816e-07
-4.01935e-08
-1.3158e-15
7.90378e-07
-1.63495e-15
7.48528e-07
-3.91502e-08
4.01935e-08
-1.057e-08
7.48528e-07
-3.91502e-08
3.55698e-08
-1.21121e-08
7.90378e-07
2.63776e-08
-1.31443e-08
8.1816e-07
1.40016e-08
-1.37356e-08
8.35916e-07
1.06506e-15
-1.40016e-08
8.44693e-07
-1.40016e-08
-1.40016e-08
8.44693e-07
-2.63776e-08
-1.37356e-08
8.35916e-07
-3.55698e-08
-1.31443e-08
8.1816e-07
-4.01935e-08
-1.21121e-08
7.90378e-07
-1.05701e-08
7.48528e-07
-3.91502e-08
3.9327e-08
-1.9828e-08
7.3426e-07
-3.83172e-08
3.48382e-08
-2.27577e-08
7.78669e-07
2.58611e-08
-2.47265e-08
8.08062e-07
1.37356e-08
-2.58611e-08
8.26726e-07
1.10262e-15
-2.63776e-08
8.35916e-07
-1.37356e-08
-2.63776e-08
8.35916e-07
-2.58611e-08
-2.58611e-08
8.26726e-07
-3.48382e-08
-2.47265e-08
8.08062e-07
-3.9327e-08
-2.27577e-08
7.78669e-07
-1.9828e-08
7.3426e-07
-3.83172e-08
3.75007e-08
-2.65876e-08
7.04834e-07
-3.65589e-08
3.32612e-08
-3.05531e-08
7.54509e-07
2.47265e-08
-3.32612e-08
7.87397e-07
1.31443e-08
-3.48382e-08
8.08062e-07
9.17306e-16
-3.55698e-08
8.1816e-07
-1.31443e-08
-3.55698e-08
8.1816e-07
-2.47265e-08
-3.48382e-08
8.08062e-07
-3.32612e-08
-3.32612e-08
7.87397e-07
-3.75007e-08
-3.05531e-08
7.54509e-07
-2.65876e-08
7.04834e-07
-3.65589e-08
3.43972e-08
-2.96647e-08
6.58298e-07
-3.38786e-08
3.05531e-08
-3.43972e-08
7.15842e-07
2.27577e-08
-3.75007e-08
7.54509e-07
1.21121e-08
-3.9327e-08
7.78669e-07
-6.3899e-16
-4.01935e-08
7.90378e-07
-1.21121e-08
-4.01935e-08
7.90378e-07
-2.27577e-08
-3.9327e-08
7.78669e-07
-3.05531e-08
-3.75007e-08
7.54509e-07
-3.43972e-08
-3.43972e-08
7.15842e-07
-2.96647e-08
6.58298e-07
-3.38786e-08
2.96647e-08
5.92328e-07
-2.91946e-08
-2.91946e-08
2.65876e-08
6.58298e-07
-3.38786e-08
1.9828e-08
7.04834e-07
-3.65589e-08
1.057e-08
7.3426e-07
-3.83172e-08
-1.34439e-15
7.48528e-07
-3.91502e-08
-1.057e-08
7.48528e-07
-3.91502e-08
-1.9828e-08
7.3426e-07
-3.83172e-08
-2.65876e-08
7.04834e-07
-3.65589e-08
-2.96647e-08
6.58298e-07
-3.38786e-08
5.92328e-07
-2.91946e-08
-2.91946e-08
1.18066e-08
1.18066e-08
5.90595e-07
-1.094e-08
-1.094e-08
1.09902e-08
1.42968e-08
6.57927e-07
-1.311e-08
8.41894e-09
1.60637e-08
7.05876e-07
-1.45344e-08
4.56068e-09
1.71934e-08
7.36435e-07
-1.55106e-08
1.36507e-16
1.77404e-08
7.51324e-07
-1.59755e-08
-4.56068e-09
1.77404e-08
7.51324e-07
-1.59755e-08
-8.41894e-09
1.71934e-08
7.36435e-07
-1.55106e-08
-1.09902e-08
1.60637e-08
7.05876e-07
-1.45344e-08
-1.18066e-08
1.42968e-08
6.57927e-07
-1.31099e-08
1.18066e-08
5.90595e-07
-1.094e-08
-1.094e-08
1.42968e-08
1.09902e-08
6.57927e-07
-1.311e-08
1.33004e-08
1.33004e-08
7.17834e-07
1.01997e-08
1.49731e-08
7.587e-07
5.51953e-09
1.60142e-08
7.84529e-07
1.72441e-15
1.65128e-08
7.97125e-07
-5.51953e-09
1.65128e-08
7.97125e-07
-1.01997e-08
1.60142e-08
7.84529e-07
-1.33004e-08
1.49731e-08
7.587e-07
-1.42968e-08
1.33004e-08
7.17834e-07
1.09902e-08
6.57927e-07
-1.31099e-08
1.60637e-08
8.41894e-09
7.05876e-07
-1.45344e-08
1.49731e-08
1.01997e-08
7.587e-07
1.14797e-08
1.14797e-08
7.94383e-07
6.20629e-09
1.22631e-08
8.17087e-07
1.44409e-15
1.26329e-08
8.28246e-07
-6.20629e-09
1.26329e-08
8.28246e-07
-1.14797e-08
1.22631e-08
8.17087e-07
-1.49731e-08
1.14797e-08
7.94383e-07
-1.60637e-08
1.01997e-08
7.587e-07
8.41894e-09
7.05876e-07
-1.45344e-08
1.71934e-08
4.56068e-09
7.36435e-07
-1.55106e-08
1.60142e-08
5.51953e-09
7.84529e-07
1.22631e-08
6.20629e-09
8.17087e-07
6.62434e-09
6.62434e-09
8.38004e-07
8.71652e-16
6.82034e-09
8.48353e-07
-6.62434e-09
6.82034e-09
8.48353e-07
-1.22631e-08
6.62434e-09
8.38004e-07
-1.60142e-08
6.20629e-09
8.17087e-07
-1.71934e-08
5.51953e-09
7.84529e-07
4.56068e-09
7.36435e-07
-1.55106e-08
1.77404e-08
5.06028e-16
7.51324e-07
-1.59755e-08
1.65128e-08
1.42889e-15
7.97125e-07
1.26329e-08
1.37649e-15
8.28246e-07
6.82034e-09
1.09938e-15
8.48353e-07
6.66365e-16
1.10709e-15
8.58334e-07
-6.82034e-09
1.09203e-15
8.58334e-07
-1.26329e-08
8.25933e-16
8.48353e-07
-1.65128e-08
3.7027e-16
8.28246e-07
-1.77404e-08
-7.58053e-16
7.97125e-07
-3.84545e-16
7.51324e-07
-1.59755e-08
1.77404e-08
-4.56068e-09
7.51324e-07
-1.59755e-08
1.65128e-08
-5.51953e-09
7.97125e-07
1.26329e-08
-6.20629e-09
8.28246e-07
6.82034e-09
-6.62434e-09
8.48353e-07
6.46056e-16
-6.82034e-09
8.58334e-07
-6.82034e-09
-6.82034e-09
8.58334e-07
-1.26329e-08
-6.62434e-09
8.48353e-07
-1.65128e-08
-6.20629e-09
8.28246e-07
-1.77404e-08
-5.51953e-09
7.97125e-07
-4.56069e-09
7.51324e-07
-1.59755e-08
1.71934e-08
-8.41894e-09
7.36435e-07
-1.55106e-08
1.60142e-08
-1.01997e-08
7.84529e-07
1.22631e-08
-1.14797e-08
8.17087e-07
6.62434e-09
-1.22631e-08
8.38004e-07
4.59489e-16
-1.26329e-08
8.48353e-07
-6.62434e-09
-1.26329e-08
8.48353e-07
-1.22631e-08
-1.22631e-08
8.38004e-07
-1.60142e-08
-1.14797e-08
8.17087e-07
-1.71934e-08
-1.01997e-08
7.84529e-07
-8.41894e-09
7.36435e-07
-1.55106e-08
1.60637e-08
-1.09902e-08
7.05876e-07
-1.45344e-08
1.49731e-08
-1.33004e-08
7.587e-07
1.14797e-08
-1.49731e-08
7.94383e-07
6.20629e-09
-1.60142e-08
8.17087e-07
1.83416e-16
-1.65128e-08
8.28246e-07
-6.20629e-09
-1.65128e-08
8.28246e-07
-1.14797e-08
-1.60142e-08
8.17087e-07
-1.49731e-08
-1.49731e-08
7.94383e-07
-1.60637e-08
-1.33004e-08
7.587e-07
-1.09902e-08
7.05876e-07
-1.45344e-08
1.42968e-08
-1.18066e-08
6.57927e-07
-1.31099e-08
1.33004e-08
-1.42968e-08
7.17834e-07
1.01997e-08
-1.60637e-08
7.587e-07
5.51953e-09
-1.71934e-08
7.84529e-07
-6.32336e-16
-1.77404e-08
7.97125e-07
-5.51953e-09
-1.77404e-08
7.97125e-07
-1.01997e-08
-1.71934e-08
7.84529e-07
-1.33004e-08
-1.60637e-08
7.587e-07
-1.42968e-08
-1.42968e-08
7.17834e-07
-1.18066e-08
6.57927e-07
-1.311e-08
1.18066e-08
5.90595e-07
-1.094e-08
-1.094e-08
1.09902e-08
6.57927e-07
-1.31099e-08
8.41894e-09
7.05876e-07
-1.45344e-08
4.56068e-09
7.36435e-07
-1.55106e-08
-5.25751e-16
7.51324e-07
-1.59755e-08
-4.56069e-09
7.51324e-07
-1.59755e-08
-8.41894e-09
7.36435e-07
-1.55106e-08
-1.09902e-08
7.05876e-07
-1.45344e-08
-1.18066e-08
6.57927e-07
-1.311e-08
5.90595e-07
-1.094e-08
-1.094e-08
3.93249e-09
3.93249e-09
5.89336e-07
-3.30302e-09
-3.30302e-09
3.91457e-09
5.17274e-09
6.57063e-07
-4.29055e-09
3.12903e-09
6.10429e-09
7.05544e-07
-4.98679e-09
1.73725e-09
6.73061e-09
7.36584e-07
-5.4881e-09
3.41732e-16
7.03899e-09
7.51751e-07
-5.72891e-09
-1.73725e-09
7.03899e-09
7.51751e-07
-5.72891e-09
-3.12903e-09
6.73061e-09
7.36584e-07
-5.4881e-09
-3.91457e-09
6.10429e-09
7.05544e-07
-4.98679e-09
-3.93249e-09
5.17274e-09
6.57063e-07
-4.29055e-09
3.93249e-09
5.89336e-07
-3.30302e-09
-3.30302e-09
5.17274e-09
3.91457e-09
6.57063e-07
-4.29055e-09
5.13295e-09
5.13295e-09
7.17914e-07
4.09412e-09
6.05849e-09
7.59785e-07
2.2642e-09
6.66068e-09
7.86429e-07
5.52118e-16
6.9551e-09
7.99473e-07
-2.2642e-09
6.9551e-09
7.99473e-07
-4.09412e-09
6.66068e-09
7.86429e-07
-5.13295e-09
6.05849e-09
7.59785e-07
-5.17274e-09
5.13295e-09
7.17914e-07
3.91457e-09
6.57063e-07
-4.29055e-09
6.10429e-09
3.12903e-09
7.05544e-07
-4.98679e-09
6.05849e-09
4.09412e-09
7.59785e-07
4.82255e-09
4.82255e-09
7.96855e-07
2.66035e-09
5.28725e-09
8.20622e-07
3.55667e-16
5.51164e-09
8.3235e-07
-2.66035e-09
5.51164e-09
8.3235e-07
-4.82255e-09
5.28725e-09
8.20622e-07
-6.05849e-09
4.82255e-09
7.96855e-07
-6.10429e-09
4.09412e-09
7.59785e-07
3.12903e-09
7.05544e-07
-4.98679e-09
6.73061e-09
1.73725e-09
7.36584e-07
-5.4881e-09
6.66068e-09
2.2642e-09
7.86429e-07
5.28725e-09
2.66035e-09
8.20622e-07
2.91132e-09
2.91132e-09
8.42756e-07
5.18221e-16
3.03172e-09
8.53745e-07
-2.91132e-09
3.03172e-09
8.53745e-07
-5.28725e-09
2.91132e-09
8.42756e-07
-6.66068e-09
2.66035e-09
8.20622e-07
-6.73061e-09
2.2642e-09
7.86429e-07
1.73725e-09
7.36584e-07
-5.4881e-09
7.03899e-09
3.95611e-16
7.51751e-07
-5.72891e-09
6.9551e-09
4.97232e-16
7.99473e-07
5.51164e-09
9.71305e-17
8.3235e-07
3.03172e-09
2.67776e-16
8.53745e-07
5.96045e-16
5.83141e-16
8.64397e-07
-3.03172e-09
8.32779e-16
8.64397e-07
-5.51164e-09
1.03964e-15
8.53745e-07
-6.9551e-09
8.44569e-16
8.3235e-07
-7.03899e-09
-9.79338e-17
7.99473e-07
-1.04718e-16
7.51751e-07
-5.72891e-09
7.03899e-09
-1.73725e-09
7.51751e-07
-5.72891e-09
6.9551e-09
-2.2642e-09
7.99473e-07
5.51164e-09
-2.66035e-09
8.3235e-07
3.03172e-09
-2.91132e-09
8.53745e-07
1.00265e-15
-3.03172e-09
8.64397e-07
-3.03172e-09
-3.03171e-09
8.64397e-07
-5.51164e-09
-2.91132e-09
8.53745e-07
-6.9551e-09
-2.66034e-09
8.3235e-07
-7.03898e-09
-2.2642e-09
7.99473e-07
-1.73725e-09
7.51751e-07
-5.72891e-09
6.73061e-09
-3.12903e-09
7.36584e-07
-5.4881e-09
6.66068e-09
-4.09412e-09
7.86429e-07
5.28725e-09
-4.82255e-09
8.20622e-07
2.91132e-09
-5.28725e-09
8.42756e-07
9.71908e-16
-5.51164e-09
8.53745e-07
-2.91132e-09
-5.51164e-09
8.53745e-07
-5.28725e-09
-5.28725e-09
8.42756e-07
-6.66068e-09
-4.82255e-09
8.20622e-07
-6.73061e-09
-4.09412e-09
7.86429e-07
-3.12903e-09
7.36584e-07
-5.4881e-09
6.10429e-09
-3.91457e-09
7.05544e-07
-4.98679e-09
6.05849e-09
-5.13295e-09
7.59785e-07
4.82255e-09
-6.05849e-09
7.96855e-07
2.66035e-09
-6.66068e-09
8.20622e-07
3.64103e-16
-6.9551e-09
8.3235e-07
-2.66035e-09
-6.9551e-09
8.3235e-07
-4.82255e-09
-6.66068e-09
8.20622e-07
-6.05849e-09
-6.05849e-09
7.96855e-07
-6.10429e-09
-5.13295e-09
7.59785e-07
-3.91458e-09
7.05544e-07
-4.98679e-09
5.17274e-09
-3.93249e-09
6.57063e-07
-4.29055e-09
5.13295e-09
-5.17274e-09
7.17914e-07
4.09412e-09
-6.10429e-09
7.59785e-07
2.2642e-09
-6.73061e-09
7.86429e-07
-4.08022e-16
-7.03898e-09
7.99473e-07
-2.2642e-09
-7.03898e-09
7.99473e-07
-4.09412e-09
-6.73061e-09
7.86429e-07
-5.13295e-09
-6.10429e-09
7.59785e-07
-5.17274e-09
-5.17274e-09
7.17914e-07
-3.93249e-09
6.57063e-07
-4.29055e-09
3.93249e-09
5.89336e-07
-3.30302e-09
-3.30302e-09
3.91457e-09
6.57063e-07
-4.29055e-09
3.12903e-09
7.05544e-07
-4.98679e-09
1.73725e-09
7.36584e-07
-5.4881e-09
-3.56332e-16
7.51751e-07
-5.72891e-09
-1.73725e-09
7.51751e-07
-5.72891e-09
-3.12903e-09
7.36584e-07
-5.4881e-09
-3.91457e-09
7.05544e-07
-4.98679e-09
-3.93249e-09
6.57063e-07
-4.29055e-09
5.89336e-07
-3.30302e-09
-3.30302e-09
1.05778e-09
1.05778e-09
5.88776e-07
-7.77927e-10
-7.77927e-10
1.14935e-09
1.56211e-09
6.56555e-07
-1.14597e-09
9.65968e-10
1.96436e-09
7.0518e-07
-1.41678e-09
5.51752e-10
2.2509e-09
7.36375e-07
-1.62765e-09
4.18434e-16
2.39459e-09
7.51638e-07
-1.72995e-09
-5.51751e-10
2.39459e-09
7.51638e-07
-1.72995e-09
-9.65968e-10
2.2509e-09
7.36375e-07
-1.62765e-09
-1.14935e-09
1.96435e-09
7.0518e-07
-1.41678e-09
-1.05778e-09
1.56211e-09
6.56555e-07
-1.14597e-09
1.05778e-09
5.88776e-07
-7.77927e-10
-7.77925e-10
1.56211e-09
1.14935e-09
6.56555e-07
-1.14597e-09
1.67294e-09
1.67294e-09
7.17692e-07
1.3955e-09
2.09618e-09
7.59931e-07
7.90944e-10
2.38642e-09
7.86898e-07
8.00166e-16
2.53172e-09
8.00127e-07
-7.90943e-10
2.53172e-09
8.00127e-07
-1.3955e-09
2.38642e-09
7.86898e-07
-1.67293e-09
2.09618e-09
7.59931e-07
-1.56211e-09
1.67293e-09
7.17692e-07
1.14935e-09
6.56555e-07
-1.14597e-09
1.96436e-09
9.65969e-10
7.0518e-07
-1.41678e-09
2.09618e-09
1.39551e-09
7.59931e-07
1.74035e-09
1.74034e-09
7.97567e-07
9.81968e-10
1.97188e-09
8.21795e-07
8.83174e-16
2.08678e-09
8.33777e-07
-9.81967e-10
2.08678e-09
8.33777e-07
-1.74034e-09
1.97188e-09
8.21795e-07
-2.09618e-09
1.74034e-09
7.97567e-07
-1.96435e-09
1.3955e-09
7.59931e-07
9.65968e-10
7.0518e-07
-1.41678e-09
2.2509e-09
5.51753e-10
7.36375e-07
-1.62765e-09
2.38642e-09
7.90945e-10
7.86898e-07
1.97188e-09
9.81968e-10
8.21795e-07
1.10926e-09
1.10926e-09
8.44481e-07
7.27773e-16
1.17214e-09
8.55768e-07
-1.10926e-09
1.17214e-09
8.55768e-07
-1.97188e-09
1.10926e-09
8.44481e-07
-2.38642e-09
9.81968e-10
8.21795e-07
-2.2509e-09
7.90943e-10
7.86898e-07
5.51752e-10
7.36375e-07
-1.62765e-09
2.39459e-09
5.97001e-16
7.51638e-07
-1.72995e-09
2.53172e-09
1.00679e-15
8.00127e-07
2.08678e-09
8.23536e-16
8.33777e-07
1.17214e-09
8.2185e-16
8.55768e-07
6.11447e-16
9.39273e-16
8.66742e-07
-1.17214e-09
1.01315e-15
8.66742e-07
-2.08678e-09
9.10597e-16
8.55768e-07
-2.53172e-09
7.43478e-16
8.33777e-07
-2.39459e-09
2.57973e-16
8.00127e-07
1.04752e-16
7.51638e-07
-1.72995e-09
2.39459e-09
-5.51751e-10
7.51638e-07
-1.72995e-09
2.53172e-09
-7.90942e-10
8.00127e-07
2.08678e-09
-9.81966e-10
8.33777e-07
1.17214e-09
-1.10926e-09
8.55768e-07
7.88913e-16
-1.17214e-09
8.66742e-07
-1.17214e-09
-1.17214e-09
8.66742e-07
-2.08678e-09
-1.10926e-09
8.55768e-07
-2.53172e-09
-9.81966e-10
8.33777e-07
-2.39459e-09
-7.90943e-10
8.00127e-07
-5.51752e-10
7.51638e-07
-1.72994e-09
2.2509e-09
-9.65968e-10
7.36375e-07
-1.62765e-09
2.38642e-09
-1.3955e-09
7.86898e-07
1.97188e-09
-1.74034e-09
8.21795e-07
1.10926e-09
-1.97188e-09
8.44481e-07
7.19876e-16
-2.08678e-09
8.55768e-07
-1.10926e-09
-2.08678e-09
8.55768e-07
-1.97188e-09
-1.97188e-09
8.44481e-07
-2.38642e-09
-1.74034e-09
8.21795e-07
-2.2509e-09
-1.3955e-09
7.86898e-07
-9.65968e-10
7.36375e-07
-1.62765e-09
1.96436e-09
-1.14935e-09
7.0518e-07
-1.41678e-09
2.09618e-09
-1.67293e-09
7.59931e-07
1.74034e-09
-2.09618e-09
7.97567e-07
9.81968e-10
-2.38642e-09
8.21795e-07
6.81044e-16
-2.53172e-09
8.33777e-07
-9.81966e-10
-2.53172e-09
8.33777e-07
-1.74034e-09
-2.38642e-09
8.21795e-07
-2.09618e-09
-2.09618e-09
7.97567e-07
-1.96435e-09
-1.67293e-09
7.59931e-07
-1.14935e-09
7.0518e-07
-1.41678e-09
1.56211e-09
-1.05778e-09
6.56555e-07
-1.14597e-09
1.67294e-09
-1.56211e-09
7.17692e-07
1.3955e-09
-1.96435e-09
7.59931e-07
7.90944e-10
-2.2509e-09
7.86898e-07
5.8275e-16
-2.39459e-09
8.00127e-07
-7.90942e-10
-2.39459e-09
8.00127e-07
-1.3955e-09
-2.2509e-09
7.86898e-07
-1.67293e-09
-1.96435e-09
7.59931e-07
-1.56211e-09
-1.56211e-09
7.17692e-07
-1.05778e-09
6.56555e-07
-1.14597e-09
1.05778e-09
5.88776e-07
-7.77926e-10
-7.77926e-10
1.14935e-09
6.56555e-07
-1.14597e-09
9.65968e-10
7.0518e-07
-1.41678e-09
5.51751e-10
7.36375e-07
-1.62765e-09
3.89961e-16
7.51638e-07
-1.72994e-09
-5.51751e-10
7.51638e-07
-1.72994e-09
-9.65968e-10
7.36375e-07
-1.62765e-09
-1.14935e-09
7.0518e-07
-1.41678e-09
-1.05778e-09
6.56555e-07
-1.14597e-09
5.88776e-07
-7.77926e-10
-7.77926e-10
2.46283e-10
2.46283e-10
5.88569e-07
-1.42757e-10
-1.42757e-10
3.00233e-10
4.20581e-10
6.56342e-07
-2.6124e-10
2.67567e-10
5.65823e-10
7.04999e-07
-3.5178e-10
1.57691e-10
6.74384e-10
7.36237e-07
-4.26279e-10
1.22956e-16
7.29373e-10
7.51529e-07
-4.62171e-10
-1.57691e-10
7.29373e-10
7.51529e-07
-4.62171e-10
-2.67567e-10
6.74384e-10
7.36237e-07
-4.26279e-10
-3.00233e-10
5.65823e-10
7.04999e-07
-3.5178e-10
-2.46283e-10
4.20581e-10
6.56342e-07
-2.6124e-10
2.46283e-10
5.88569e-07
-1.42757e-10
-1.42756e-10
4.20581e-10
3.00233e-10
6.56342e-07
-2.6124e-10
4.9007e-10
4.90069e-10
7.17553e-07
4.27653e-10
6.50766e-10
7.59908e-07
2.48239e-10
7.65918e-10
7.86986e-07
6.60502e-17
8.24569e-10
8.0028e-07
-2.48239e-10
8.24569e-10
8.0028e-07
-4.27653e-10
7.65918e-10
7.86986e-07
-4.9007e-10
6.50766e-10
7.59908e-07
-4.20581e-10
4.9007e-10
7.17553e-07
3.00232e-10
6.56342e-07
-2.61239e-10
5.65823e-10
2.67566e-10
7.04999e-07
-3.51779e-10
6.50765e-10
4.27653e-10
7.59908e-07
5.62783e-10
5.62783e-10
7.97743e-07
3.24383e-10
6.57556e-10
8.22142e-07
-9.03294e-18
7.05587e-10
8.3422e-07
-3.24383e-10
7.05587e-10
8.3422e-07
-5.62783e-10
6.57556e-10
8.22142e-07
-6.50765e-10
5.62784e-10
7.97743e-07
-5.65823e-10
4.27653e-10
7.59908e-07
2.67566e-10
7.04999e-07
-3.51779e-10
6.74383e-10
1.57691e-10
7.36237e-07
-4.26279e-10
7.65918e-10
2.48239e-10
7.86986e-07
6.57555e-10
3.24383e-10
8.22142e-07
3.77409e-10
3.77409e-10
8.45041e-07
1.54568e-16
4.04216e-10
8.56447e-07
-3.77409e-10
4.04216e-10
8.56447e-07
-6.57555e-10
3.77409e-10
8.45041e-07
-7.65918e-10
3.24383e-10
8.22142e-07