/*--------------------------------*- C++ -*----------------------------------*\
| =========                 |                                                 |
| \\      /  F ield         | OpenFOAM: The Open Source CFD Toolbox           |
|  \\    /   O peration     | Version:  2412                                  |
|   \\  /    A nd           | Website:  www.openfoam.com                      |
|    \\/     M anipulation  |                                                 |
\*---------------------------------------------------------------------------*/
FoamFile
{
    version     2.0;
    format      ascii;
    arch        "LSB;label=32;scalar=64";
    class       volVectorField;
    location    "5.3";
    object      U;
}
// * * * * * * * * * * * * * * * * * * * * * * * * * * * * * * * * * * * * * //

dimensions      [0 1 -1 0 0 0 0];

internalField   nonuniform List<vector> 
15000
(
(0.00121968 0.00121968 0.0104525)
(0.000902805 0.00114494 0.0104262)
(0.000616082 0.00112003 0.0103973)
(0.000361822 0.00109451 0.0103748)
(0.000118848 0.00108261 0.0103632)
(-0.000118848 0.00108261 0.0103632)
(-0.000361822 0.00109451 0.0103748)
(-0.000616082 0.00112003 0.0103973)
(-0.000902805 0.00114494 0.0104262)
(-0.00121968 0.00121968 0.0104525)
(0.00114494 0.000902805 0.0104262)
(0.000852947 0.000852947 0.0103795)
(0.000583634 0.000816061 0.0103396)
(0.000340089 0.000789308 0.0103124)
(0.00011151 0.000776151 0.0102989)
(-0.00011151 0.000776151 0.0102989)
(-0.000340089 0.000789308 0.0103124)
(-0.000583634 0.000816061 0.0103396)
(-0.000852947 0.000852947 0.0103795)
(-0.00114494 0.000902805 0.0104262)
(0.00112003 0.000616082 0.0103973)
(0.000816061 0.000583634 0.0103396)
(0.000553369 0.000553369 0.0102957)
(0.000320252 0.000531107 0.0102669)
(0.000104714 0.000519822 0.0102527)
(-0.000104714 0.000519822 0.0102527)
(-0.000320252 0.000531107 0.0102669)
(-0.000553369 0.000553369 0.0102957)
(-0.000816061 0.000583634 0.0103396)
(-0.00112003 0.000616082 0.0103973)
(0.00109451 0.000361822 0.0103748)
(0.000789308 0.000340089 0.0103124)
(0.000531107 0.000320252 0.0102669)
(0.000305703 0.000305703 0.0102374)
(9.9716e-05 0.000298272 0.0102228)
(-9.9716e-05 0.000298272 0.0102228)
(-0.000305703 0.000305703 0.0102374)
(-0.000531107 0.000320252 0.0102669)
(-0.000789308 0.000340089 0.0103124)
(-0.00109451 0.000361822 0.0103748)
(0.00108261 0.000118848 0.0103632)
(0.000776151 0.00011151 0.0102989)
(0.000519822 0.000104714 0.0102527)
(0.000298272 9.9716e-05 0.0102228)
(9.7157e-05 9.7157e-05 0.0102081)
(-9.7157e-05 9.7157e-05 0.0102081)
(-0.000298272 9.9716e-05 0.0102228)
(-0.000519822 0.000104714 0.0102527)
(-0.000776151 0.00011151 0.0102989)
(-0.00108261 0.000118848 0.0103632)
(0.00108261 -0.000118848 0.0103632)
(0.000776151 -0.00011151 0.0102989)
(0.000519822 -0.000104714 0.0102527)
(0.000298272 -9.9716e-05 0.0102228)
(9.7157e-05 -9.7157e-05 0.0102081)
(-9.7157e-05 -9.7157e-05 0.0102081)
(-0.000298272 -9.9716e-05 0.0102228)
(-0.000519822 -0.000104714 0.0102527)
(-0.000776151 -0.00011151 0.0102989)
(-0.00108261 -0.000118848 0.0103632)
(0.00109451 -0.000361822 0.0103748)
(0.000789308 -0.000340089 0.0103124)
(0.000531107 -0.000320252 0.0102669)
(0.000305703 -0.000305703 0.0102374)
(9.9716e-05 -0.000298272 0.0102228)
(-9.9716e-05 -0.000298272 0.0102228)
(-0.000305703 -0.000305703 0.0102374)
(-0.000531107 -0.000320252 0.0102669)
(-0.000789308 -0.000340089 0.0103124)
(-0.00109451 -0.000361822 0.0103748)
(0.00112003 -0.000616082 0.0103973)
(0.000816061 -0.000583634 0.0103396)
(0.000553369 -0.000553369 0.0102957)
(0.000320252 -0.000531107 0.0102669)
(0.000104714 -0.000519822 0.0102527)
(-0.000104714 -0.000519822 0.0102527)
(-0.000320252 -0.000531107 0.0102669)
(-0.000553369 -0.000553369 0.0102957)
(-0.000816061 -0.000583634 0.0103396)
(-0.00112003 -0.000616082 0.0103973)
(0.00114494 -0.000902805 0.0104262)
(0.000852947 -0.000852947 0.0103795)
(0.000583634 -0.000816061 0.0103396)
(0.000340089 -0.000789308 0.0103124)
(0.00011151 -0.000776151 0.0102989)
(-0.00011151 -0.000776151 0.0102989)
(-0.000340089 -0.000789308 0.0103124)
(-0.000583634 -0.000816061 0.0103396)
(-0.000852947 -0.000852947 0.0103795)
(-0.00114494 -0.000902805 0.0104262)
(0.00121968 -0.00121968 0.0104525)
(0.000902805 -0.00114494 0.0104262)
(0.000616082 -0.00112003 0.0103973)
(0.000361822 -0.00109451 0.0103748)
(0.000118848 -0.00108261 0.0103632)
(-0.000118848 -0.00108261 0.0103632)
(-0.000361822 -0.00109451 0.0103748)
(-0.000616082 -0.00112003 0.0103973)
(-0.000902805 -0.00114494 0.0104262)
(-0.00121968 -0.00121968 0.0104525)
(0.000711829 0.000711829 0.0126144)
(0.000562777 0.000750383 0.0125868)
(0.000400382 0.000774865 0.0124983)
(0.000239687 0.000785846 0.012412)
(7.93974e-05 0.000791468 0.0123628)
(-7.93974e-05 0.000791468 0.0123628)
(-0.000239687 0.000785846 0.012412)
(-0.000400382 0.000774865 0.0124983)
(-0.000562777 0.000750383 0.0125868)
(-0.000711829 0.000711829 0.0126144)
(0.000750383 0.000562777 0.0125868)
(0.000584093 0.000584093 0.012433)
(0.000411786 0.00059361 0.0122558)
(0.000244397 0.000596515 0.0121203)
(8.08589e-05 0.000597839 0.0120495)
(-8.08589e-05 0.000597839 0.0120495)
(-0.000244397 0.000596515 0.0121203)
(-0.000411786 0.00059361 0.0122558)
(-0.000584093 0.000584093 0.012433)
(-0.000750383 0.000562777 0.0125868)
(0.000774865 0.000400382 0.0124983)
(0.00059361 0.000411786 0.0122558)
(0.000415559 0.000415559 0.0120308)
(0.00024558 0.000416097 0.0118728)
(8.11813e-05 0.000416194 0.0117933)
(-8.11813e-05 0.000416194 0.0117933)
(-0.00024558 0.000416097 0.0118728)
(-0.000415559 0.000415559 0.0120308)
(-0.00059361 0.000411786 0.0122558)
(-0.000774865 0.000400382 0.0124983)
(0.000785846 0.000239687 0.012412)
(0.000596515 0.000244397 0.0121203)
(0.000416097 0.00024558 0.0118728)
(0.000245483 0.000245483 0.0117061)
(8.11255e-05 0.000245343 0.0116237)
(-8.11255e-05 0.000245343 0.0116237)
(-0.000245483 0.000245483 0.0117061)
(-0.000416097 0.00024558 0.0118728)
(-0.000596515 0.000244397 0.0121203)
(-0.000785846 0.000239687 0.012412)
(0.000791468 7.93974e-05 0.0123628)
(0.000597839 8.08589e-05 0.0120495)
(0.000416194 8.11813e-05 0.0117933)
(0.000245343 8.11255e-05 0.0116237)
(8.10665e-05 8.10665e-05 0.0115407)
(-8.10665e-05 8.10665e-05 0.0115407)
(-0.000245343 8.11255e-05 0.0116237)
(-0.000416194 8.11813e-05 0.0117933)
(-0.000597839 8.08589e-05 0.0120495)
(-0.000791468 7.93974e-05 0.0123628)
(0.000791468 -7.93974e-05 0.0123628)
(0.000597839 -8.08589e-05 0.0120495)
(0.000416194 -8.11813e-05 0.0117933)
(0.000245343 -8.11255e-05 0.0116237)
(8.10665e-05 -8.10665e-05 0.0115407)
(-8.10665e-05 -8.10665e-05 0.0115407)
(-0.000245343 -8.11255e-05 0.0116237)
(-0.000416194 -8.11813e-05 0.0117933)
(-0.000597839 -8.08589e-05 0.0120495)
(-0.000791468 -7.93974e-05 0.0123628)
(0.000785846 -0.000239687 0.012412)
(0.000596515 -0.000244397 0.0121203)
(0.000416097 -0.00024558 0.0118728)
(0.000245483 -0.000245483 0.0117061)
(8.11255e-05 -0.000245343 0.0116237)
(-8.11255e-05 -0.000245343 0.0116237)
(-0.000245483 -0.000245483 0.0117061)
(-0.000416097 -0.00024558 0.0118728)
(-0.000596515 -0.000244397 0.0121203)
(-0.000785846 -0.000239687 0.012412)
(0.000774865 -0.000400382 0.0124983)
(0.00059361 -0.000411786 0.0122558)
(0.000415559 -0.000415559 0.0120308)
(0.00024558 -0.000416097 0.0118728)
(8.11813e-05 -0.000416194 0.0117933)
(-8.11813e-05 -0.000416194 0.0117933)
(-0.00024558 -0.000416097 0.0118728)
(-0.000415559 -0.000415559 0.0120308)
(-0.00059361 -0.000411786 0.0122558)
(-0.000774865 -0.000400382 0.0124983)
(0.000750383 -0.000562777 0.0125868)
(0.000584093 -0.000584093 0.012433)
(0.000411786 -0.00059361 0.0122558)
(0.000244397 -0.000596515 0.0121203)
(8.08589e-05 -0.000597839 0.0120495)
(-8.08589e-05 -0.000597839 0.0120495)
(-0.000244397 -0.000596515 0.0121203)
(-0.000411786 -0.00059361 0.0122558)
(-0.000584093 -0.000584093 0.012433)
(-0.000750383 -0.000562777 0.0125868)
(0.000711829 -0.000711829 0.0126144)
(0.000562777 -0.000750383 0.0125868)
(0.000400382 -0.000774865 0.0124983)
(0.000239687 -0.000785846 0.012412)
(7.93974e-05 -0.000791468 0.0123628)
(-7.93974e-05 -0.000791468 0.0123628)
(-0.000239687 -0.000785846 0.012412)
(-0.000400382 -0.000774865 0.0124983)
(-0.000562777 -0.000750383 0.0125868)
(-0.000711829 -0.000711829 0.0126144)
(0.000461126 0.000461126 0.0124873)
(0.000386682 0.000517256 0.0126914)
(0.000291232 0.000556785 0.0127434)
(0.000180507 0.000581121 0.0127353)
(6.08814e-05 0.000593324 0.0127208)
(-6.08814e-05 0.000593324 0.0127208)
(-0.000180507 0.000581121 0.0127353)
(-0.000291232 0.000556785 0.0127434)
(-0.000386682 0.000517256 0.0126914)
(-0.000461126 0.000461126 0.0124873)
(0.000517256 0.000386682 0.0126914)
(0.000433857 0.000433857 0.0127402)
(0.00032448 0.000464931 0.0126748)
(0.000200233 0.000483244 0.0125991)
(6.75348e-05 0.000492131 0.0125546)
(-6.75348e-05 0.000492131 0.0125546)
(-0.000200233 0.000483244 0.0125991)
(-0.00032448 0.000464931 0.0126748)
(-0.000433857 0.000433857 0.0127402)
(-0.000517256 0.000386682 0.0126914)
(0.000556785 0.000291232 0.0127434)
(0.000464931 0.00032448 0.0126748)
(0.000346503 0.000346503 0.0125413)
(0.000213262 0.000359402 0.0124323)
(7.19035e-05 0.000365526 0.0123748)
(-7.19035e-05 0.000365526 0.0123748)
(-0.000213262 0.000359402 0.0124323)
(-0.000346503 0.000346503 0.0125413)
(-0.000464931 0.00032448 0.0126748)
(-0.000556785 0.000291232 0.0127434)
(0.000581121 0.000180507 0.0127353)
(0.000483244 0.000200233 0.0125991)
(0.000359402 0.000213262 0.0124323)
(0.000220902 0.000220902 0.0123097)
(7.44563e-05 0.000224484 0.0122475)
(-7.44563e-05 0.000224484 0.0122475)
(-0.000220902 0.000220902 0.0123097)
(-0.000359402 0.000213262 0.0124323)
(-0.000483244 0.000200233 0.0125991)
(-0.000581121 0.000180507 0.0127353)
(0.000593324 6.08814e-05 0.0127208)
(0.000492131 6.75348e-05 0.0125546)
(0.000365526 7.19035e-05 0.0123748)
(0.000224484 7.44563e-05 0.0122475)
(7.56431e-05 7.56431e-05 0.012184)
(-7.5643e-05 7.56431e-05 0.012184)
(-0.000224484 7.44563e-05 0.0122475)
(-0.000365526 7.19035e-05 0.0123748)
(-0.000492131 6.75348e-05 0.0125546)
(-0.000593324 6.08814e-05 0.0127208)
(0.000593324 -6.08814e-05 0.0127208)
(0.000492131 -6.75348e-05 0.0125546)
(0.000365526 -7.19035e-05 0.0123748)
(0.000224484 -7.44563e-05 0.0122475)
(7.56431e-05 -7.5643e-05 0.012184)
(-7.5643e-05 -7.5643e-05 0.012184)
(-0.000224484 -7.44563e-05 0.0122475)
(-0.000365526 -7.19035e-05 0.0123748)
(-0.000492131 -6.75348e-05 0.0125546)
(-0.000593324 -6.08814e-05 0.0127208)
(0.000581121 -0.000180507 0.0127353)
(0.000483244 -0.000200233 0.0125991)
(0.000359402 -0.000213262 0.0124323)
(0.000220902 -0.000220902 0.0123097)
(7.44563e-05 -0.000224484 0.0122475)
(-7.44563e-05 -0.000224484 0.0122475)
(-0.000220902 -0.000220902 0.0123097)
(-0.000359402 -0.000213262 0.0124323)
(-0.000483244 -0.000200233 0.0125991)
(-0.000581121 -0.000180507 0.0127353)
(0.000556785 -0.000291232 0.0127434)
(0.000464931 -0.00032448 0.0126748)
(0.000346503 -0.000346503 0.0125413)
(0.000213262 -0.000359402 0.0124323)
(7.19035e-05 -0.000365526 0.0123748)
(-7.19035e-05 -0.000365526 0.0123748)
(-0.000213262 -0.000359402 0.0124323)
(-0.000346503 -0.000346503 0.0125413)
(-0.000464931 -0.00032448 0.0126748)
(-0.000556785 -0.000291232 0.0127434)
(0.000517256 -0.000386682 0.0126914)
(0.000433857 -0.000433857 0.0127402)
(0.00032448 -0.000464931 0.0126748)
(0.000200233 -0.000483244 0.0125991)
(6.75348e-05 -0.000492131 0.0125546)
(-6.75348e-05 -0.000492131 0.0125546)
(-0.000200233 -0.000483244 0.0125991)
(-0.00032448 -0.000464931 0.0126748)
(-0.000433857 -0.000433857 0.0127402)
(-0.000517256 -0.000386682 0.0126914)
(0.000461126 -0.000461126 0.0124873)
(0.000386682 -0.000517256 0.0126914)
(0.000291232 -0.000556785 0.0127434)
(0.000180507 -0.000581121 0.0127353)
(6.08814e-05 -0.000593324 0.0127208)
(-6.08814e-05 -0.000593324 0.0127208)
(-0.000180507 -0.000581121 0.0127353)
(-0.000291232 -0.000556785 0.0127434)
(-0.000386682 -0.000517256 0.0126914)
(-0.000461126 -0.000461126 0.0124873)
(0.000177018 0.000177018 0.0126557)
(0.00015826 0.000219055 0.0129506)
(0.000126888 0.000249749 0.01307)
(8.14033e-05 0.000271061 0.0131051)
(2.79478e-05 0.000281862 0.0131114)
(-2.79478e-05 0.000281862 0.0131114)
(-8.14033e-05 0.000271061 0.0131051)
(-0.000126888 0.000249749 0.01307)
(-0.00015826 0.000219055 0.0129506)
(-0.000177018 0.000177018 0.0126557)
(0.000219055 0.00015826 0.0129506)
(0.000197717 0.000197717 0.0131041)
(0.000156768 0.000226944 0.0131105)
(0.000100349 0.000246146 0.013079)
(3.44527e-05 0.000255756 0.0130555)
(-3.44527e-05 0.000255756 0.0130555)
(-0.000100349 0.000246146 0.013079)
(-0.000156768 0.000226944 0.0131105)
(-0.000197717 0.000197717 0.0131041)
(-0.000219055 0.00015826 0.0129506)
(0.000249749 0.000126888 0.01307)
(0.000226944 0.000156768 0.0131105)
(0.000179635 0.000179635 0.0130488)
(0.000114756 0.000194538 0.012983)
(3.93848e-05 0.000201922 0.0129458)
(-3.93848e-05 0.000201922 0.0129458)
(-0.000114756 0.000194538 0.012983)
(-0.000179635 0.000179635 0.0130488)
(-0.000226944 0.000156768 0.0131105)
(-0.000249749 0.000126888 0.01307)
(0.000271061 8.14032e-05 0.0131051)
(0.000246146 0.000100349 0.013079)
(0.000194538 0.000114756 0.012983)
(0.000124113 0.000124113 0.0129022)
(4.25781e-05 0.000128715 0.0128594)
(-4.25781e-05 0.000128715 0.0128594)
(-0.000124113 0.000124113 0.0129022)
(-0.000194538 0.000114756 0.012983)
(-0.000246146 0.000100349 0.013079)
(-0.000271061 8.14032e-05 0.0131051)
(0.000281862 2.79478e-05 0.0131114)
(0.000255756 3.44527e-05 0.0130555)
(0.000201922 3.93848e-05 0.0129458)
(0.000128715 4.25781e-05 0.0128594)
(4.41412e-05 4.41412e-05 0.0128147)
(-4.41412e-05 4.41412e-05 0.0128147)
(-0.000128715 4.25781e-05 0.0128594)
(-0.000201922 3.93848e-05 0.0129458)
(-0.000255756 3.44527e-05 0.0130555)
(-0.000281862 2.79478e-05 0.0131114)
(0.000281862 -2.79478e-05 0.0131114)
(0.000255756 -3.44527e-05 0.0130555)
(0.000201922 -3.93848e-05 0.0129458)
(0.000128715 -4.25781e-05 0.0128594)
(4.41412e-05 -4.41412e-05 0.0128147)
(-4.41412e-05 -4.41412e-05 0.0128147)
(-0.000128715 -4.25781e-05 0.0128594)
(-0.000201922 -3.93848e-05 0.0129458)
(-0.000255756 -3.44527e-05 0.0130555)
(-0.000281862 -2.79478e-05 0.0131114)
(0.000271061 -8.14033e-05 0.0131051)
(0.000246146 -0.000100349 0.013079)
(0.000194538 -0.000114756 0.012983)
(0.000124113 -0.000124113 0.0129022)
(4.25781e-05 -0.000128715 0.0128594)
(-4.25781e-05 -0.000128715 0.0128594)
(-0.000124113 -0.000124113 0.0129022)
(-0.000194538 -0.000114756 0.012983)
(-0.000246146 -0.000100349 0.013079)
(-0.000271061 -8.14032e-05 0.0131051)
(0.000249749 -0.000126888 0.01307)
(0.000226944 -0.000156768 0.0131105)
(0.000179635 -0.000179635 0.0130488)
(0.000114756 -0.000194538 0.012983)
(3.93848e-05 -0.000201922 0.0129458)
(-3.93848e-05 -0.000201922 0.0129458)
(-0.000114756 -0.000194538 0.012983)
(-0.000179635 -0.000179635 0.0130488)
(-0.000226944 -0.000156768 0.0131105)
(-0.000249749 -0.000126888 0.01307)
(0.000219055 -0.00015826 0.0129506)
(0.000197717 -0.000197717 0.0131041)
(0.000156768 -0.000226944 0.0131105)
(0.000100349 -0.000246146 0.013079)
(3.44527e-05 -0.000255756 0.0130555)
(-3.44527e-05 -0.000255756 0.0130555)
(-0.000100349 -0.000246146 0.013079)
(-0.000156768 -0.000226944 0.0131105)
(-0.000197717 -0.000197717 0.0131041)
(-0.000219055 -0.00015826 0.0129506)
(0.000177018 -0.000177018 0.0126557)
(0.00015826 -0.000219055 0.0129506)
(0.000126888 -0.000249749 0.01307)
(8.14032e-05 -0.000271061 0.0131051)
(2.79478e-05 -0.000281862 0.0131114)
(-2.79478e-05 -0.000281862 0.0131114)
(-8.14032e-05 -0.000271061 0.0131051)
(-0.000126888 -0.000249749 0.01307)
(-0.00015826 -0.000219055 0.0129506)
(-0.000177018 -0.000177018 0.0126557)
(6.96441e-05 6.96442e-05 0.0125899)
(6.42932e-05 8.90483e-05 0.0129357)
(5.36775e-05 0.000104265 0.013099)
(3.51726e-05 0.000115372 0.0131657)
(1.22085e-05 0.000121067 0.0131882)
(-1.22085e-05 0.000121067 0.0131882)
(-3.51726e-05 0.000115372 0.0131657)
(-5.36775e-05 0.000104265 0.013099)
(-6.42932e-05 8.90483e-05 0.0129357)
(-6.96442e-05 6.96442e-05 0.0125899)
(8.90483e-05 6.42932e-05 0.0129357)
(8.46822e-05 8.46823e-05 0.0131593)
(6.984e-05 0.000100588 0.0132222)
(4.57268e-05 0.000111488 0.0132299)
(1.58678e-05 0.000117032 0.0132262)
(-1.58677e-05 0.000117032 0.0132262)
(-4.57267e-05 0.000111488 0.0132299)
(-6.984e-05 0.000100588 0.0132222)
(-8.46823e-05 8.46823e-05 0.0131593)
(-8.90483e-05 6.42932e-05 0.0129357)
(0.000104265 5.36775e-05 0.013099)
(0.000100588 6.984e-05 0.0132222)
(8.28459e-05 8.2846e-05 0.013225)
(5.41643e-05 9.16607e-05 0.0132025)
(1.87898e-05 9.611e-05 0.0131868)
(-1.87898e-05 9.611e-05 0.0131868)
(-5.41643e-05 9.16607e-05 0.0132025)
(-8.28459e-05 8.28459e-05 0.013225)
(-0.000100588 6.98401e-05 0.0132222)
(-0.000104265 5.36775e-05 0.013099)
(0.000115372 3.51726e-05 0.0131657)
(0.000111488 4.57268e-05 0.0132299)
(9.16607e-05 5.41643e-05 0.0132025)
(5.98435e-05 5.98435e-05 0.0131668)
(2.07505e-05 6.26918e-05 0.0131461)
(-2.07505e-05 6.26918e-05 0.0131461)
(-5.98434e-05 5.98434e-05 0.0131668)
(-9.16607e-05 5.41643e-05 0.0132025)
(-0.000111488 4.57267e-05 0.0132299)
(-0.000115372 3.51726e-05 0.0131657)
(0.000121067 1.22085e-05 0.0131882)
(0.000117032 1.58678e-05 0.0132262)
(9.611e-05 1.87898e-05 0.0131868)
(6.26918e-05 2.07505e-05 0.0131461)
(2.17306e-05 2.17306e-05 0.0131237)
(-2.17306e-05 2.17306e-05 0.0131237)
(-6.26918e-05 2.07505e-05 0.0131461)
(-9.611e-05 1.87898e-05 0.0131868)
(-0.000117032 1.58677e-05 0.0132262)
(-0.000121067 1.22085e-05 0.0131882)
(0.000121067 -1.22085e-05 0.0131882)
(0.000117032 -1.58677e-05 0.0132262)
(9.611e-05 -1.87898e-05 0.0131868)
(6.26918e-05 -2.07505e-05 0.0131461)
(2.17306e-05 -2.17306e-05 0.0131237)
(-2.17306e-05 -2.17306e-05 0.0131237)
(-6.26918e-05 -2.07505e-05 0.0131461)
(-9.611e-05 -1.87898e-05 0.0131868)
(-0.000117032 -1.58677e-05 0.0132262)
(-0.000121067 -1.22085e-05 0.0131882)
(0.000115372 -3.51726e-05 0.0131657)
(0.000111488 -4.57268e-05 0.0132299)
(9.16607e-05 -5.41643e-05 0.0132025)
(5.98434e-05 -5.98434e-05 0.0131668)
(2.07505e-05 -6.26918e-05 0.0131461)
(-2.07505e-05 -6.26918e-05 0.0131461)
(-5.98434e-05 -5.98434e-05 0.0131668)
(-9.16607e-05 -5.41643e-05 0.0132025)
(-0.000111488 -4.57267e-05 0.0132299)
(-0.000115372 -3.51726e-05 0.0131657)
(0.000104265 -5.36775e-05 0.013099)
(0.000100588 -6.984e-05 0.0132222)
(8.28459e-05 -8.28459e-05 0.013225)
(5.41643e-05 -9.16607e-05 0.0132025)
(1.87898e-05 -9.611e-05 0.0131868)
(-1.87898e-05 -9.611e-05 0.0131868)
(-5.41643e-05 -9.16607e-05 0.0132025)
(-8.28459e-05 -8.28459e-05 0.013225)
(-0.000100588 -6.984e-05 0.0132222)
(-0.000104265 -5.36775e-05 0.013099)
(8.90483e-05 -6.42932e-05 0.0129357)
(8.46823e-05 -8.46823e-05 0.0131593)
(6.98401e-05 -0.000100588 0.0132222)
(4.57268e-05 -0.000111488 0.0132299)
(1.58677e-05 -0.000117032 0.0132262)
(-1.58677e-05 -0.000117032 0.0132262)
(-4.57267e-05 -0.000111488 0.0132299)
(-6.984e-05 -0.000100588 0.0132222)
(-8.46822e-05 -8.46822e-05 0.0131593)
(-8.90483e-05 -6.42932e-05 0.0129357)
(6.96441e-05 -6.96441e-05 0.0125899)
(6.42932e-05 -8.90483e-05 0.0129357)
(5.36775e-05 -0.000104265 0.013099)
(3.51726e-05 -0.000115372 0.0131657)
(1.22085e-05 -0.000121067 0.0131882)
(-1.22085e-05 -0.000121067 0.0131882)
(-3.51726e-05 -0.000115372 0.0131657)
(-5.36775e-05 -0.000104265 0.013099)
(-6.42932e-05 -8.90483e-05 0.0129357)
(-6.96442e-05 -6.96442e-05 0.0125899)
(2.24603e-05 2.24603e-05 0.0125466)
(2.21814e-05 3.11003e-05 0.0129056)
(1.97261e-05 3.81536e-05 0.0130835)
(1.33412e-05 4.35138e-05 0.0131621)
(4.70619e-06 4.62861e-05 0.0131911)
(-4.70618e-06 4.62861e-05 0.0131911)
(-1.33412e-05 4.35138e-05 0.0131621)
(-1.97261e-05 3.81536e-05 0.0130835)
(-2.21814e-05 3.11003e-05 0.0129056)
(-2.24603e-05 2.24603e-05 0.0125466)
(3.11003e-05 2.21814e-05 0.0129056)
(3.18796e-05 3.18796e-05 0.0131547)
(2.77126e-05 3.97829e-05 0.0132417)
(1.86872e-05 4.53973e-05 0.0132674)
(6.57482e-06 4.82922e-05 0.0132733)
(-6.57482e-06 4.82922e-05 0.0132733)
(-1.86872e-05 4.53973e-05 0.0132674)
(-2.77126e-05 3.97829e-05 0.0132417)
(-3.18796e-05 3.18796e-05 0.0131547)
(-3.11003e-05 2.21814e-05 0.0129056)
(3.81536e-05 1.97261e-05 0.0130835)
(3.97829e-05 2.77126e-05 0.0132417)
(3.44148e-05 3.44148e-05 0.0132755)
(2.31355e-05 3.91032e-05 0.0132752)
(8.12895e-06 4.15046e-05 0.0132709)
(-8.12894e-06 4.15046e-05 0.0132709)
(-2.31355e-05 3.91032e-05 0.0132752)
(-3.44148e-05 3.44148e-05 0.0132755)
(-3.97828e-05 2.77126e-05 0.0132417)
(-3.81536e-05 1.97261e-05 0.0130835)
(4.35138e-05 1.33412e-05 0.0131621)
(4.53973e-05 1.86872e-05 0.0132674)
(3.91032e-05 2.31355e-05 0.0132752)
(2.62163e-05 2.62163e-05 0.0132641)
(9.20139e-06 2.77839e-05 0.0132559)
(-9.20138e-06 2.77839e-05 0.0132559)
(-2.62163e-05 2.62163e-05 0.0132641)
(-3.91032e-05 2.31355e-05 0.0132752)
(-4.53973e-05 1.86872e-05 0.0132674)
(-4.35138e-05 1.33412e-05 0.0131621)
(4.62861e-05 4.70619e-06 0.0131911)
(4.82922e-05 6.57482e-06 0.0132733)
(4.15046e-05 8.12894e-06 0.0132709)
(2.77839e-05 9.20138e-06 0.0132559)
(9.74534e-06 9.74534e-06 0.0132464)
(-9.74533e-06 9.74534e-06 0.0132464)
(-2.77839e-05 9.20139e-06 0.0132559)
(-4.15046e-05 8.12895e-06 0.0132709)
(-4.82922e-05 6.57482e-06 0.0132733)
(-4.62861e-05 4.70618e-06 0.0131911)
(4.62861e-05 -4.70618e-06 0.0131911)
(4.82922e-05 -6.57481e-06 0.0132733)
(4.15046e-05 -8.12894e-06 0.0132709)
(2.77839e-05 -9.20138e-06 0.0132559)
(9.74534e-06 -9.74533e-06 0.0132464)
(-9.74533e-06 -9.74533e-06 0.0132464)
(-2.77839e-05 -9.20138e-06 0.0132559)
(-4.15046e-05 -8.12894e-06 0.0132709)
(-4.82922e-05 -6.57482e-06 0.0132733)
(-4.62861e-05 -4.70618e-06 0.0131911)
(4.35138e-05 -1.33412e-05 0.0131621)
(4.53973e-05 -1.86872e-05 0.0132674)
(3.91032e-05 -2.31355e-05 0.0132752)
(2.62163e-05 -2.62163e-05 0.0132641)
(9.20139e-06 -2.77839e-05 0.0132559)
(-9.20138e-06 -2.77839e-05 0.0132559)
(-2.62163e-05 -2.62163e-05 0.0132641)
(-3.91032e-05 -2.31355e-05 0.0132752)
(-4.53973e-05 -1.86872e-05 0.0132674)
(-4.35138e-05 -1.33412e-05 0.0131621)
(3.81536e-05 -1.97261e-05 0.0130835)
(3.97829e-05 -2.77126e-05 0.0132417)
(3.44148e-05 -3.44148e-05 0.0132755)
(2.31355e-05 -3.91032e-05 0.0132752)
(8.12895e-06 -4.15046e-05 0.0132709)
(-8.12894e-06 -4.15046e-05 0.0132709)
(-2.31355e-05 -3.91032e-05 0.0132752)
(-3.44148e-05 -3.44148e-05 0.0132755)
(-3.97828e-05 -2.77126e-05 0.0132417)
(-3.81536e-05 -1.97261e-05 0.0130835)
(3.11003e-05 -2.21814e-05 0.0129056)
(3.18796e-05 -3.18796e-05 0.0131547)
(2.77126e-05 -3.97829e-05 0.0132417)
(1.86872e-05 -4.53973e-05 0.0132674)
(6.57481e-06 -4.82922e-05 0.0132733)
(-6.57482e-06 -4.82922e-05 0.0132733)
(-1.86872e-05 -4.53973e-05 0.0132674)
(-2.77126e-05 -3.97828e-05 0.0132417)
(-3.18796e-05 -3.18796e-05 0.0131547)
(-3.11003e-05 -2.21814e-05 0.0129056)
(2.24603e-05 -2.24603e-05 0.0125466)
(2.21814e-05 -3.11003e-05 0.0129056)
(1.97261e-05 -3.81536e-05 0.0130835)
(1.33412e-05 -4.35138e-05 0.0131621)
(4.70618e-06 -4.62861e-05 0.0131911)
(-4.70618e-06 -4.62861e-05 0.0131911)
(-1.33412e-05 -4.35138e-05 0.0131621)
(-1.97261e-05 -3.81536e-05 0.0130835)
(-2.21814e-05 -3.11003e-05 0.0129056)
(-2.24603e-05 -2.24603e-05 0.0125466)
(5.772e-06 5.772e-06 0.01253)
(6.23588e-06 8.98643e-06 0.0128923)
(6.00624e-06 1.17265e-05 0.0130751)
(4.20677e-06 1.39235e-05 0.0131581)
(1.51413e-06 1.50681e-05 0.0131896)
(-1.51413e-06 1.50681e-05 0.0131896)
(-4.20676e-06 1.39235e-05 0.0131581)
(-6.00624e-06 1.17265e-05 0.0130751)
(-6.23588e-06 8.98643e-06 0.0128923)
(-5.772e-06 5.77199e-06 0.01253)
(8.98643e-06 6.23588e-06 0.0128923)
(1.01005e-05 1.01005e-05 0.0131502)
(9.33723e-06 1.34241e-05 0.0132466)
(6.50304e-06 1.5894e-05 0.0132798)
(2.324e-06 1.71893e-05 0.0132898)
(-2.32399e-06 1.71893e-05 0.0132898)
(-6.50304e-06 1.5894e-05 0.0132798)
(-9.33724e-06 1.34241e-05 0.0132466)
(-1.01005e-05 1.01005e-05 0.0131502)
(-8.98643e-06 6.23588e-06 0.0128923)
(1.17265e-05 6.00624e-06 0.0130751)
(1.34241e-05 9.33723e-06 0.0132466)
(1.22861e-05 1.22861e-05 0.0132933)
(8.5166e-06 1.44344e-05 0.0133028)
(3.03506e-06 1.55557e-05 0.0133037)
(-3.03504e-06 1.55557e-05 0.0133037)
(-8.51659e-06 1.44344e-05 0.0133028)
(-1.22861e-05 1.22861e-05 0.0132933)
(-1.34241e-05 9.33724e-06 0.0132466)
(-1.17265e-05 6.00624e-06 0.0130751)
(1.39235e-05 4.20677e-06 0.0131581)
(1.5894e-05 6.50305e-06 0.0132798)
(1.44344e-05 8.5166e-06 0.0133028)
(9.96591e-06 9.96591e-06 0.0133028)
(3.54517e-06 1.0718e-05 0.0133003)
(-3.54516e-06 1.0718e-05 0.0133003)
(-9.9659e-06 9.96591e-06 0.0133028)
(-1.44344e-05 8.5166e-06 0.0133028)
(-1.5894e-05 6.50304e-06 0.0132798)
(-1.39235e-05 4.20676e-06 0.0131581)
(1.50681e-05 1.51413e-06 0.0131896)
(1.71893e-05 2.324e-06 0.0132898)
(1.55557e-05 3.03506e-06 0.0133037)
(1.0718e-05 3.54517e-06 0.0133003)
(3.80927e-06 3.80927e-06 0.0132969)
(-3.80926e-06 3.80927e-06 0.0132969)
(-1.0718e-05 3.54517e-06 0.0133003)
(-1.55557e-05 3.03506e-06 0.0133037)
(-1.71893e-05 2.32399e-06 0.0132898)
(-1.50681e-05 1.51413e-06 0.0131896)
(1.50681e-05 -1.51413e-06 0.0131896)
(1.71893e-05 -2.32399e-06 0.0132898)
(1.55557e-05 -3.03505e-06 0.0133037)
(1.0718e-05 -3.54516e-06 0.0133003)
(3.80927e-06 -3.80926e-06 0.0132969)
(-3.80926e-06 -3.80926e-06 0.0132969)
(-1.0718e-05 -3.54516e-06 0.0133003)
(-1.55557e-05 -3.03505e-06 0.0133037)
(-1.71893e-05 -2.32399e-06 0.0132898)
(-1.50681e-05 -1.51413e-06 0.0131896)
(1.39235e-05 -4.20676e-06 0.0131581)
(1.5894e-05 -6.50304e-06 0.0132798)
(1.44344e-05 -8.51659e-06 0.0133028)
(9.96591e-06 -9.9659e-06 0.0133028)
(3.54517e-06 -1.0718e-05 0.0133003)
(-3.54516e-06 -1.0718e-05 0.0133003)
(-9.9659e-06 -9.9659e-06 0.0133028)
(-1.44344e-05 -8.51659e-06 0.0133028)
(-1.5894e-05 -6.50303e-06 0.0132798)
(-1.39235e-05 -4.20676e-06 0.0131581)
(1.17265e-05 -6.00624e-06 0.0130751)
(1.34241e-05 -9.33724e-06 0.0132466)
(1.22861e-05 -1.22861e-05 0.0132933)
(8.5166e-06 -1.44344e-05 0.0133028)
(3.03505e-06 -1.55557e-05 0.0133037)
(-3.03504e-06 -1.55557e-05 0.0133037)
(-8.51659e-06 -1.44344e-05 0.0133028)
(-1.22861e-05 -1.22861e-05 0.0132933)
(-1.34241e-05 -9.33722e-06 0.0132466)
(-1.17265e-05 -6.00623e-06 0.0130751)
(8.98643e-06 -6.23588e-06 0.0128923)
(1.01006e-05 -1.01005e-05 0.0131502)
(9.33724e-06 -1.34241e-05 0.0132466)
(6.50304e-06 -1.5894e-05 0.0132798)
(2.32399e-06 -1.71893e-05 0.0132898)
(-2.32399e-06 -1.71893e-05 0.0132898)
(-6.50303e-06 -1.5894e-05 0.0132798)
(-9.33723e-06 -1.34241e-05 0.0132466)
(-1.01005e-05 -1.01005e-05 0.0131502)
(-8.98643e-06 -6.23587e-06 0.0128923)
(5.772e-06 -5.772e-06 0.01253)
(6.23588e-06 -8.98643e-06 0.0128923)
(6.00624e-06 -1.17265e-05 0.0130751)
(4.20676e-06 -1.39235e-05 0.0131581)
(1.51413e-06 -1.50681e-05 0.0131896)
(-1.51413e-06 -1.50681e-05 0.0131896)
(-4.20676e-06 -1.39235e-05 0.0131581)
(-6.00623e-06 -1.17265e-05 0.0130751)
(-6.23588e-06 -8.98643e-06 0.0128923)
(-5.772e-06 -5.772e-06 0.01253)
(1.25977e-06 1.25977e-06 0.0125235)
(1.53965e-06 2.29111e-06 0.0128864)
(1.64129e-06 3.19931e-06 0.0130706)
(1.19317e-06 3.97058e-06 0.013155)
(4.40243e-07 4.37299e-06 0.0131874)
(-4.40241e-07 4.37299e-06 0.0131874)
(-1.19317e-06 3.97057e-06 0.013155)
(-1.64129e-06 3.1993e-06 0.0130706)
(-1.53965e-06 2.29111e-06 0.0128864)
(-1.25977e-06 1.25977e-06 0.0125235)
(2.29111e-06 1.53965e-06 0.0128864)
(2.86907e-06 2.86907e-06 0.0131469)
(2.83053e-06 4.0621e-06 0.0132466)
(2.03356e-06 4.98573e-06 0.0132828)
(7.38514e-07 5.47671e-06 0.0132943)
(-7.38513e-07 5.47671e-06 0.0132943)
(-2.03356e-06 4.98572e-06 0.0132828)
(-2.83052e-06 4.0621e-06 0.0132466)
(-2.86907e-06 2.86907e-06 0.0131469)
(-2.29111e-06 1.53964e-06 0.0128864)
(3.19931e-06 1.64129e-06 0.0130706)
(4.0621e-06 2.83053e-06 0.0132466)
(3.93369e-06 3.9337e-06 0.0132984)
(2.8072e-06 4.76912e-06 0.0133119)
(1.01425e-06 5.21234e-06 0.0133149)
(-1.01425e-06 5.21234e-06 0.0133149)
(-2.8072e-06 4.76912e-06 0.0133119)
(-3.93369e-06 3.93369e-06 0.0132984)
(-4.0621e-06 2.83053e-06 0.0132466)
(-3.1993e-06 1.64129e-06 0.0130706)
(3.97058e-06 1.19317e-06 0.013155)
(4.98573e-06 2.03356e-06 0.0132828)
(4.76912e-06 2.80721e-06 0.0133119)
(3.38559e-06 3.3856e-06 0.0133166)
(1.21994e-06 3.69123e-06 0.0133166)
(-1.21994e-06 3.69123e-06 0.0133166)
(-3.38559e-06 3.3856e-06 0.0133166)
(-4.76912e-06 2.80721e-06 0.0133119)
(-4.98572e-06 2.03356e-06 0.0132828)
(-3.97057e-06 1.19317e-06 0.013155)
(4.37299e-06 4.40243e-07 0.0131874)
(5.47671e-06 7.38515e-07 0.0132943)
(5.21234e-06 1.01425e-06 0.0133149)
(3.69123e-06 1.21995e-06 0.0133166)
(1.32854e-06 1.32854e-06 0.0133159)
(-1.32854e-06 1.32854e-06 0.0133159)
(-3.69123e-06 1.21995e-06 0.0133166)
(-5.21234e-06 1.01425e-06 0.0133149)
(-5.47671e-06 7.38515e-07 0.0132943)
(-4.37299e-06 4.40243e-07 0.0131874)
(4.37299e-06 -4.40241e-07 0.0131874)
(5.47671e-06 -7.38512e-07 0.0132943)
(5.21234e-06 -1.01425e-06 0.0133149)
(3.69123e-06 -1.21994e-06 0.0133166)
(1.32854e-06 -1.32854e-06 0.0133159)
(-1.32854e-06 -1.32854e-06 0.0133159)
(-3.69123e-06 -1.21994e-06 0.0133166)
(-5.21233e-06 -1.01425e-06 0.0133149)
(-5.47671e-06 -7.38511e-07 0.0132943)
(-4.37298e-06 -4.40243e-07 0.0131874)
(3.97057e-06 -1.19317e-06 0.013155)
(4.98572e-06 -2.03356e-06 0.0132828)
(4.76912e-06 -2.8072e-06 0.0133119)
(3.3856e-06 -3.38559e-06 0.0133166)
(1.21995e-06 -3.69123e-06 0.0133166)
(-1.21994e-06 -3.69123e-06 0.0133166)
(-3.38559e-06 -3.38559e-06 0.0133166)
(-4.76912e-06 -2.8072e-06 0.0133119)
(-4.98572e-06 -2.03356e-06 0.0132828)
(-3.97057e-06 -1.19317e-06 0.013155)
(3.1993e-06 -1.64129e-06 0.0130706)
(4.0621e-06 -2.83053e-06 0.0132466)
(3.93369e-06 -3.93369e-06 0.0132984)
(2.80721e-06 -4.76912e-06 0.0133119)
(1.01425e-06 -5.21233e-06 0.0133149)
(-1.01425e-06 -5.21233e-06 0.0133149)
(-2.8072e-06 -4.76912e-06 0.0133119)
(-3.93369e-06 -3.93369e-06 0.0132984)
(-4.06209e-06 -2.83052e-06 0.0132466)
(-3.1993e-06 -1.64129e-06 0.0130706)
(2.2911e-06 -1.53965e-06 0.0128864)
(2.86907e-06 -2.86907e-06 0.0131469)
(2.83053e-06 -4.0621e-06 0.0132466)
(2.03357e-06 -4.98572e-06 0.0132828)
(7.38515e-07 -5.47671e-06 0.0132943)
(-7.38513e-07 -5.47671e-06 0.0132943)
(-2.03356e-06 -4.98572e-06 0.0132828)
(-2.83052e-06 -4.06209e-06 0.0132466)
(-2.86907e-06 -2.86907e-06 0.0131469)
(-2.29111e-06 -1.53964e-06 0.0128864)
(1.25977e-06 -1.25977e-06 0.0125235)
(1.53964e-06 -2.29111e-06 0.0128864)
(1.64129e-06 -3.1993e-06 0.0130706)