/*--------------------------------*- C++ -*----------------------------------*\
| =========                 |                                                 |
| \\      /  F ield         | OpenFOAM: The Open Source CFD Toolbox           |
|  \\    /   O peration     | Version:  2412                                  |
|   \\  /    A nd           | Website:  www.openfoam.com                      |
|    \\/     M anipulation  |                                                 |
\*---------------------------------------------------------------------------*/
FoamFile
{
    version     2.0;
    format      ascii;
    arch        "LSB;label=32;scalar=64";
    class       volVectorField;
    location    "8.1";
    object      U;
}
// * * * * * * * * * * * * * * * * * * * * * * * * * * * * * * * * * * * * * //

dimensions      [0 1 -1 0 0 0 0];

internalField   nonuniform List<vector> 
15000
(
(0.00120892 0.00120892 0.0103912)
(0.000893923 0.0011313 0.0103414)
(0.000609688 0.00110484 0.0102998)
(0.000358183 0.00107876 0.0102727)
(0.000117686 0.00106677 0.01026)
(-0.000117686 0.00106677 0.01026)
(-0.000358183 0.00107876 0.0102727)
(-0.000609688 0.00110484 0.0102998)
(-0.000893923 0.0011313 0.0103414)
(-0.00120892 0.00120892 0.0103912)
(0.0011313 0.000893923 0.0103414)
(0.00084285 0.00084285 0.0102772)
(0.000577477 0.000806114 0.0102356)
(0.000337091 0.000780053 0.0102131)
(0.00011065 0.000767435 0.0102037)
(-0.00011065 0.000767435 0.0102037)
(-0.000337091 0.000780053 0.0102131)
(-0.000577477 0.000806114 0.0102356)
(-0.00084285 0.00084285 0.0102772)
(-0.0011313 0.000893923 0.0103414)
(0.00110484 0.000609688 0.0102998)
(0.000806114 0.000577477 0.0102356)
(0.000548344 0.000548344 0.0102013)
(0.000318335 0.000527232 0.0101847)
(0.000104278 0.00051662 0.010178)
(-0.000104278 0.00051662 0.010178)
(-0.000318335 0.000527232 0.0101847)
(-0.000548344 0.000548344 0.0102013)
(-0.000806114 0.000577477 0.0102356)
(-0.00110484 0.000609688 0.0102998)
(0.00107876 0.000358183 0.0102727)
(0.000780053 0.000337091 0.0102131)
(0.000527232 0.000318335 0.0101847)
(0.000304697 0.000304697 0.0101716)
(9.96135e-05 0.000297754 0.0101661)
(-9.96135e-05 0.000297754 0.0101661)
(-0.000304697 0.000304697 0.0101716)
(-0.000527232 0.000318335 0.0101847)
(-0.000780053 0.000337091 0.0102131)
(-0.00107876 0.000358183 0.0102727)
(0.00106677 0.000117686 0.01026)
(0.000767435 0.00011065 0.0102037)
(0.00051662 0.000104278 0.010178)
(0.000297754 9.96135e-05 0.0101661)
(9.72271e-05 9.72271e-05 0.0101611)
(-9.72271e-05 9.72271e-05 0.0101611)
(-0.000297754 9.96135e-05 0.0101661)
(-0.00051662 0.000104278 0.010178)
(-0.000767435 0.00011065 0.0102037)
(-0.00106677 0.000117686 0.01026)
(0.00106677 -0.000117686 0.01026)
(0.000767435 -0.00011065 0.0102037)
(0.00051662 -0.000104278 0.010178)
(0.000297754 -9.96135e-05 0.0101661)
(9.72271e-05 -9.72271e-05 0.0101611)
(-9.72271e-05 -9.72271e-05 0.0101611)
(-0.000297754 -9.96135e-05 0.0101661)
(-0.00051662 -0.000104278 0.010178)
(-0.000767435 -0.00011065 0.0102037)
(-0.00106677 -0.000117686 0.01026)
(0.00107876 -0.000358183 0.0102727)
(0.000780053 -0.000337091 0.0102131)
(0.000527232 -0.000318335 0.0101847)
(0.000304697 -0.000304697 0.0101716)
(9.96135e-05 -0.000297754 0.0101661)
(-9.96135e-05 -0.000297754 0.0101661)
(-0.000304697 -0.000304697 0.0101716)
(-0.000527232 -0.000318335 0.0101847)
(-0.000780053 -0.000337091 0.0102131)
(-0.00107876 -0.000358183 0.0102727)
(0.00110484 -0.000609688 0.0102998)
(0.000806114 -0.000577477 0.0102356)
(0.000548344 -0.000548344 0.0102013)
(0.000318335 -0.000527232 0.0101847)
(0.000104278 -0.00051662 0.010178)
(-0.000104278 -0.00051662 0.010178)
(-0.000318335 -0.000527232 0.0101847)
(-0.000548344 -0.000548344 0.0102013)
(-0.000806114 -0.000577477 0.0102356)
(-0.00110484 -0.000609688 0.0102998)
(0.0011313 -0.000893923 0.0103414)
(0.00084285 -0.00084285 0.0102772)
(0.000577477 -0.000806114 0.0102356)
(0.000337091 -0.000780053 0.0102131)
(0.00011065 -0.000767435 0.0102037)
(-0.00011065 -0.000767435 0.0102037)
(-0.000337091 -0.000780053 0.0102131)
(-0.000577477 -0.000806114 0.0102356)
(-0.00084285 -0.00084285 0.0102772)
(-0.0011313 -0.000893923 0.0103414)
(0.00120892 -0.00120892 0.0103912)
(0.000893923 -0.0011313 0.0103414)
(0.000609688 -0.00110484 0.0102998)
(0.000358183 -0.00107876 0.0102727)
(0.000117686 -0.00106677 0.01026)
(-0.000117686 -0.00106677 0.01026)
(-0.000358183 -0.00107876 0.0102727)
(-0.000609688 -0.00110484 0.0102998)
(-0.000893923 -0.0011313 0.0103414)
(-0.00120892 -0.00120892 0.0103912)
(0.000822731 0.000822731 0.0126785)
(0.000652881 0.000872402 0.0126528)
(0.000465954 0.000901632 0.0125624)
(0.000279033 0.000913116 0.0124739)
(9.24404e-05 0.000918124 0.0124235)
(-9.24404e-05 0.000918124 0.0124235)
(-0.000279033 0.000913116 0.0124739)
(-0.000465954 0.000901632 0.0125624)
(-0.000652881 0.000872402 0.0126528)
(-0.000822731 0.000822731 0.0126785)
(0.000872402 0.000652881 0.0126528)
(0.000678795 0.000678795 0.0124937)
(0.000476538 0.000686131 0.0123105)
(0.000281206 0.00068454 0.0121712)
(9.27024e-05 0.000682756 0.0120988)
(-9.27024e-05 0.000682756 0.0120988)
(-0.000281206 0.00068454 0.0121712)
(-0.000476538 0.000686131 0.0123105)
(-0.000678795 0.000678795 0.0124937)
(-0.000872402 0.000652881 0.0126528)
(0.000901632 0.000465954 0.0125624)
(0.000686131 0.000476538 0.0123105)
(0.000474655 0.000474655 0.0120787)
(0.000277297 0.000469168 0.0119172)
(9.10558e-05 0.000465676 0.0118364)
(-9.10558e-05 0.000465676 0.0118364)
(-0.000277297 0.000469168 0.0119172)
(-0.000474655 0.000474655 0.0120787)
(-0.000686131 0.000476538 0.0123105)
(-0.000901632 0.000465954 0.0125624)
(0.000913116 0.000279033 0.0124739)
(0.00068454 0.000281206 0.0121712)
(0.000469168 0.000277297 0.0119172)
(0.000272569 0.000272569 0.0117475)
(8.93035e-05 0.000269821 0.0116639)
(-8.93035e-05 0.000269821 0.0116639)
(-0.000272569 0.000272569 0.0117475)
(-0.000469168 0.000277297 0.0119172)
(-0.00068454 0.000281206 0.0121712)
(-0.000913116 0.000279033 0.0124739)
(0.000918124 9.24404e-05 0.0124235)
(0.000682756 9.27024e-05 0.0120988)
(0.000465676 9.10558e-05 0.0118364)
(0.000269821 8.93035e-05 0.0116639)
(8.83099e-05 8.83099e-05 0.0115795)
(-8.83099e-05 8.83099e-05 0.0115795)
(-0.000269821 8.93035e-05 0.0116639)
(-0.000465676 9.10558e-05 0.0118364)
(-0.000682756 9.27024e-05 0.0120988)
(-0.000918124 9.24404e-05 0.0124235)
(0.000918124 -9.24404e-05 0.0124235)
(0.000682756 -9.27024e-05 0.0120988)
(0.000465676 -9.10558e-05 0.0118364)
(0.000269821 -8.93035e-05 0.0116639)
(8.83099e-05 -8.83099e-05 0.0115795)
(-8.83099e-05 -8.83099e-05 0.0115795)
(-0.000269821 -8.93035e-05 0.0116639)
(-0.000465676 -9.10558e-05 0.0118364)
(-0.000682756 -9.27024e-05 0.0120988)
(-0.000918124 -9.24404e-05 0.0124235)
(0.000913116 -0.000279033 0.0124739)
(0.00068454 -0.000281206 0.0121712)
(0.000469168 -0.000277297 0.0119172)
(0.000272569 -0.000272569 0.0117475)
(8.93035e-05 -0.000269821 0.0116639)
(-8.93035e-05 -0.000269821 0.0116639)
(-0.000272569 -0.000272569 0.0117475)
(-0.000469168 -0.000277297 0.0119172)
(-0.00068454 -0.000281206 0.0121712)
(-0.000913116 -0.000279033 0.0124739)
(0.000901632 -0.000465954 0.0125624)
(0.000686131 -0.000476538 0.0123105)
(0.000474655 -0.000474655 0.0120787)
(0.000277297 -0.000469168 0.0119172)
(9.10558e-05 -0.000465676 0.0118364)
(-9.10558e-05 -0.000465676 0.0118364)
(-0.000277297 -0.000469168 0.0119172)
(-0.000474655 -0.000474655 0.0120787)
(-0.000686131 -0.000476538 0.0123105)
(-0.000901632 -0.000465954 0.0125624)
(0.000872402 -0.000652881 0.0126528)
(0.000678795 -0.000678795 0.0124937)
(0.000476538 -0.000686131 0.0123105)
(0.000281206 -0.00068454 0.0121712)
(9.27024e-05 -0.000682756 0.0120988)
(-9.27024e-05 -0.000682756 0.0120988)
(-0.000281206 -0.00068454 0.0121712)
(-0.000476538 -0.000686131 0.0123105)
(-0.000678795 -0.000678795 0.0124937)
(-0.000872402 -0.000652881 0.0126528)
(0.000822731 -0.000822731 0.0126785)
(0.000652881 -0.000872402 0.0126528)
(0.000465954 -0.000901632 0.0125624)
(0.000279033 -0.000913116 0.0124739)
(9.24404e-05 -0.000918124 0.0124235)
(-9.24404e-05 -0.000918124 0.0124235)
(-0.000279033 -0.000913116 0.0124739)
(-0.000465954 -0.000901632 0.0125624)
(-0.000652881 -0.000872402 0.0126528)
(-0.000822731 -0.000822731 0.0126785)
(0.000631137 0.000631137 0.0125236)
(0.000529191 0.000714327 0.0128223)
(0.000399296 0.000770401 0.0129335)
(0.000247077 0.000802924 0.0129553)
(8.32541e-05 0.000818181 0.0129521)
(-8.32541e-05 0.000818181 0.0129521)
(-0.000247077 0.000802924 0.0129553)
(-0.000399296 0.000770401 0.0129335)
(-0.000529191 0.000714327 0.0128223)
(-0.000631137 0.000631137 0.0125236)
(0.000714327 0.000529191 0.0128223)
(0.000595504 0.000595504 0.0129537)
(0.000440911 0.000634064 0.0129178)
(0.000269479 0.000653516 0.0128444)
(9.04025e-05 0.000661808 0.0127959)
(-9.04025e-05 0.000661808 0.0127959)
(-0.000269479 0.000653516 0.0128444)
(-0.000440911 0.000634064 0.0129178)
(-0.000595504 0.000595504 0.0129537)
(-0.000714327 0.000529191 0.0128223)
(0.000770401 0.000399296 0.0129335)
(0.000634064 0.000440911 0.0129178)
(0.000463599 0.000463599 0.01278)
(0.000280846 0.000474052 0.0126489)
(9.38881e-05 0.000478145 0.0125754)
(-9.38881e-05 0.000478145 0.0125754)
(-0.000280846 0.000474052 0.0126489)
(-0.000463599 0.000463599 0.01278)
(-0.000634064 0.000440911 0.0129178)
(-0.000770401 0.000399296 0.0129335)
(0.000802924 0.000247077 0.0129553)
(0.000653516 0.000269479 0.0128444)
(0.000474052 0.000280846 0.0126489)
(0.000285782 0.000285782 0.0124891)
(9.53552e-05 0.0002876 0.0124044)
(-9.53552e-05 0.0002876 0.0124044)
(-0.000285782 0.000285782 0.0124891)
(-0.000474052 0.000280846 0.0126489)
(-0.000653516 0.000269479 0.0128444)
(-0.000802924 0.000247077 0.0129553)
(0.000818181 8.32541e-05 0.0129521)
(0.000661808 9.04025e-05 0.0127959)
(0.000478145 9.38881e-05 0.0125754)
(0.0002876 9.53552e-05 0.0124044)
(9.58777e-05 9.58777e-05 0.0123158)
(-9.58777e-05 9.58777e-05 0.0123158)
(-0.0002876 9.53552e-05 0.0124044)
(-0.000478145 9.38881e-05 0.0125754)
(-0.000661808 9.04025e-05 0.0127959)
(-0.000818181 8.32541e-05 0.0129521)
(0.000818181 -8.32541e-05 0.0129521)
(0.000661808 -9.04025e-05 0.0127959)
(0.000478145 -9.38881e-05 0.0125754)
(0.0002876 -9.53552e-05 0.0124044)
(9.58777e-05 -9.58777e-05 0.0123158)
(-9.58777e-05 -9.58777e-05 0.0123158)
(-0.0002876 -9.53552e-05 0.0124044)
(-0.000478145 -9.38881e-05 0.0125754)
(-0.000661808 -9.04025e-05 0.0127959)
(-0.000818181 -8.32541e-05 0.0129521)
(0.000802924 -0.000247077 0.0129553)
(0.000653516 -0.000269479 0.0128444)
(0.000474052 -0.000280846 0.0126489)
(0.000285782 -0.000285782 0.0124891)
(9.53552e-05 -0.0002876 0.0124044)
(-9.53552e-05 -0.0002876 0.0124044)
(-0.000285782 -0.000285782 0.0124891)
(-0.000474052 -0.000280846 0.0126489)
(-0.000653516 -0.000269479 0.0128444)
(-0.000802924 -0.000247077 0.0129553)
(0.000770401 -0.000399296 0.0129335)
(0.000634064 -0.000440911 0.0129178)
(0.000463599 -0.000463599 0.01278)
(0.000280846 -0.000474052 0.0126489)
(9.38881e-05 -0.000478145 0.0125754)
(-9.38881e-05 -0.000478145 0.0125754)
(-0.000280846 -0.000474052 0.0126489)
(-0.000463599 -0.000463599 0.01278)
(-0.000634064 -0.000440911 0.0129178)
(-0.000770401 -0.000399296 0.0129335)
(0.000714327 -0.000529191 0.0128223)
(0.000595504 -0.000595504 0.0129537)
(0.000440911 -0.000634064 0.0129178)
(0.000269479 -0.000653516 0.0128444)
(9.04025e-05 -0.000661808 0.0127959)
(-9.04025e-05 -0.000661808 0.0127959)
(-0.000269479 -0.000653516 0.0128444)
(-0.000440911 -0.000634064 0.0129178)
(-0.000595504 -0.000595504 0.0129537)
(-0.000714327 -0.000529191 0.0128223)
(0.000631137 -0.000631137 0.0125236)
(0.000529191 -0.000714327 0.0128223)
(0.000399296 -0.000770401 0.0129335)
(0.000247077 -0.000802924 0.0129553)
(8.32541e-05 -0.000818181 0.0129521)
(-8.32541e-05 -0.000818181 0.0129521)
(-0.000247077 -0.000802924 0.0129553)
(-0.000399296 -0.000770401 0.0129335)
(-0.000529191 -0.000714327 0.0128223)
(-0.000631137 -0.000631137 0.0125236)
(0.000318032 0.000318032 0.012753)
(0.000277976 0.000387015 0.013224)
(0.000220055 0.000437128 0.0134595)
(0.000139809 0.000470138 0.0135575)
(4.77667e-05 0.000486137 0.0135896)
(-4.77667e-05 0.000486137 0.0135896)
(-0.000139809 0.000470138 0.0135575)
(-0.000220055 0.000437128 0.0134595)
(-0.000277976 0.000387015 0.013224)
(-0.000318032 0.000318032 0.012753)
(0.000387015 0.000277976 0.013224)
(0.000340526 0.000340526 0.0135472)
(0.000263909 0.000383728 0.0136281)
(0.000166097 0.000410164 0.0136177)
(5.65429e-05 0.000422694 0.0135961)
(-5.65429e-05 0.000422694 0.0135961)
(-0.000166097 0.000410164 0.0136177)
(-0.000263909 0.000383728 0.0136281)
(-0.000340526 0.000340526 0.0135472)
(-0.000387015 0.000277976 0.013224)
(0.000437128 0.000220055 0.0134595)
(0.000383728 0.000263909 0.0136281)
(0.00029456 0.00029456 0.0135881)
(0.000184225 0.000313102 0.0135033)
(6.25666e-05 0.000321821 0.0134478)
(-6.25666e-05 0.000321821 0.0134478)
(-0.000184225 0.000313102 0.0135033)
(-0.00029456 0.00029456 0.0135881)
(-0.000383728 0.000263909 0.0136281)
(-0.000437128 0.000220055 0.0134595)
(0.000470138 0.000139809 0.0135575)
(0.000410164 0.000166097 0.0136177)
(0.000313102 0.000184225 0.0135033)
(0.000195188 0.000195188 0.0133781)
(6.6211e-05 0.000200333 0.0133058)
(-6.6211e-05 0.000200333 0.0133058)
(-0.000195188 0.000195188 0.0133781)
(-0.000313102 0.000184225 0.0135033)
(-0.000410164 0.000166097 0.0136177)
(-0.000470138 0.000139809 0.0135575)
(0.000486137 4.77667e-05 0.0135896)
(0.000422694 5.65429e-05 0.0135961)
(0.000321821 6.25666e-05 0.0134478)
(0.000200333 6.6211e-05 0.0133058)
(6.7919e-05 6.7919e-05 0.013227)
(-6.79189e-05 6.7919e-05 0.013227)
(-0.000200333 6.6211e-05 0.0133058)
(-0.000321821 6.25666e-05 0.0134478)
(-0.000422694 5.65429e-05 0.0135961)
(-0.000486137 4.77667e-05 0.0135896)
(0.000486137 -4.77667e-05 0.0135896)
(0.000422694 -5.65429e-05 0.0135961)
(0.000321821 -6.25666e-05 0.0134478)
(0.000200333 -6.6211e-05 0.0133058)
(6.7919e-05 -6.79189e-05 0.013227)
(-6.79189e-05 -6.79189e-05 0.013227)
(-0.000200333 -6.6211e-05 0.0133058)
(-0.000321821 -6.25666e-05 0.0134478)
(-0.000422694 -5.65429e-05 0.0135961)
(-0.000486137 -4.77667e-05 0.0135896)
(0.000470138 -0.000139809 0.0135575)
(0.000410164 -0.000166097 0.0136177)
(0.000313102 -0.000184225 0.0135033)
(0.000195188 -0.000195188 0.0133781)
(6.6211e-05 -0.000200333 0.0133058)
(-6.6211e-05 -0.000200333 0.0133058)
(-0.000195188 -0.000195188 0.0133781)
(-0.000313102 -0.000184225 0.0135033)
(-0.000410164 -0.000166097 0.0136177)
(-0.000470138 -0.000139809 0.0135575)
(0.000437128 -0.000220055 0.0134595)
(0.000383728 -0.000263909 0.0136281)
(0.00029456 -0.00029456 0.0135881)
(0.000184225 -0.000313102 0.0135033)
(6.25666e-05 -0.000321821 0.0134478)
(-6.25666e-05 -0.000321821 0.0134478)
(-0.000184225 -0.000313102 0.0135033)
(-0.00029456 -0.00029456 0.0135881)
(-0.000383728 -0.000263909 0.0136281)
(-0.000437128 -0.000220055 0.0134595)
(0.000387015 -0.000277976 0.013224)
(0.000340526 -0.000340526 0.0135472)
(0.000263909 -0.000383728 0.0136281)
(0.000166097 -0.000410164 0.0136177)
(5.65429e-05 -0.000422694 0.0135961)
(-5.65429e-05 -0.000422694 0.0135961)
(-0.000166097 -0.000410164 0.0136177)
(-0.000263909 -0.000383728 0.0136281)
(-0.000340526 -0.000340526 0.0135472)
(-0.000387015 -0.000277976 0.013224)
(0.000318032 -0.000318032 0.012753)
(0.000277976 -0.000387015 0.013224)
(0.000220055 -0.000437128 0.0134595)
(0.000139809 -0.000470138 0.0135575)
(4.77667e-05 -0.000486137 0.0135896)
(-4.77667e-05 -0.000486137 0.0135896)
(-0.000139809 -0.000470138 0.0135575)
(-0.000220055 -0.000437128 0.0134595)
(-0.000277976 -0.000387015 0.013224)
(-0.000318032 -0.000318032 0.012753)
(0.000161992 0.000161992 0.0126595)
(0.000144919 0.000202107 0.0132389)
(0.000118621 0.000234022 0.0135623)
(7.68089e-05 0.00025635 0.01372)
(2.65079e-05 0.000267458 0.0137817)
(-2.65079e-05 0.000267458 0.0137817)
(-7.68089e-05 0.00025635 0.01372)
(-0.000118621 0.000234022 0.0135623)
(-0.000144919 0.000202107 0.0132389)
(-0.000161992 0.000161992 0.0126595)
(0.000202107 0.000144919 0.0132389)
(0.000185695 0.000185695 0.0137021)
(0.00014931 0.000216508 0.0138844)
(9.61694e-05 0.00023689 0.0139387)
(3.31155e-05 0.000246951 0.0139481)
(-3.31154e-05 0.000246951 0.0139481)
(-9.61694e-05 0.00023689 0.0139387)
(-0.00014931 0.000216508 0.0138844)
(-0.000185695 0.000185695 0.0137021)
(-0.000202107 0.000144919 0.0132389)
(0.000234022 0.000118621 0.0135623)
(0.000216508 0.00014931 0.0138844)
(0.000173037 0.000173037 0.0139493)
(0.000111025 0.000188611 0.0139285)
(3.81769e-05 0.000196266 0.0139032)
(-3.81769e-05 0.000196266 0.0139032)
(-0.000111025 0.000188611 0.0139285)
(-0.000173037 0.000173037 0.0139493)
(-0.000216508 0.00014931 0.0138844)
(-0.000234022 0.000118621 0.0135623)
(0.00025635 7.68089e-05 0.01372)
(0.00023689 9.61694e-05 0.0139387)
(0.000188611 0.000111025 0.0139285)
(0.000120736 0.000120736 0.0138654)
(4.14789e-05 0.00012549 0.0138222)
(-4.14789e-05 0.00012549 0.0138222)
(-0.000120736 0.000120736 0.0138654)
(-0.000188611 0.000111025 0.0139285)
(-0.00023689 9.61694e-05 0.0139387)
(-0.00025635 7.68089e-05 0.01372)
(0.000267458 2.65079e-05 0.0137817)
(0.000246951 3.31155e-05 0.0139481)
(0.000196266 3.81769e-05 0.0139032)
(0.00012549 4.14789e-05 0.0138222)
(4.3091e-05 4.3091e-05 0.0137719)
(-4.3091e-05 4.3091e-05 0.0137719)
(-0.00012549 4.14789e-05 0.0138222)
(-0.000196266 3.81769e-05 0.0139032)
(-0.000246951 3.31155e-05 0.0139481)
(-0.000267458 2.65079e-05 0.0137817)
(0.000267458 -2.65079e-05 0.0137817)
(0.000246951 -3.31154e-05 0.0139481)
(0.000196266 -3.81769e-05 0.0139032)
(0.00012549 -4.14789e-05 0.0138222)
(4.3091e-05 -4.3091e-05 0.0137719)
(-4.3091e-05 -4.3091e-05 0.0137719)
(-0.00012549 -4.14789e-05 0.0138222)
(-0.000196266 -3.81769e-05 0.0139032)
(-0.000246951 -3.31155e-05 0.0139481)
(-0.000267458 -2.65079e-05 0.0137817)
(0.00025635 -7.68089e-05 0.01372)
(0.00023689 -9.61694e-05 0.0139387)
(0.000188611 -0.000111025 0.0139285)
(0.000120736 -0.000120736 0.0138654)
(4.14789e-05 -0.00012549 0.0138222)
(-4.14789e-05 -0.00012549 0.0138222)
(-0.000120736 -0.000120736 0.0138654)
(-0.000188611 -0.000111025 0.0139285)
(-0.00023689 -9.61694e-05 0.0139387)
(-0.00025635 -7.68089e-05 0.01372)
(0.000234022 -0.000118621 0.0135623)
(0.000216508 -0.00014931 0.0138844)
(0.000173037 -0.000173037 0.0139493)
(0.000111025 -0.000188611 0.0139285)
(3.81769e-05 -0.000196266 0.0139032)
(-3.81769e-05 -0.000196266 0.0139032)
(-0.000111025 -0.000188611 0.0139285)
(-0.000173037 -0.000173037 0.0139493)
(-0.000216508 -0.00014931 0.0138844)
(-0.000234022 -0.000118621 0.0135623)
(0.000202107 -0.000144919 0.0132389)
(0.000185695 -0.000185695 0.0137021)
(0.00014931 -0.000216508 0.0138844)
(9.61694e-05 -0.00023689 0.0139387)
(3.31154e-05 -0.000246951 0.0139481)
(-3.31154e-05 -0.000246951 0.0139481)
(-9.61694e-05 -0.00023689 0.0139387)
(-0.00014931 -0.000216508 0.0138844)
(-0.000185695 -0.000185695 0.0137021)
(-0.000202107 -0.000144919 0.0132389)
(0.000161992 -0.000161992 0.0126595)
(0.000144919 -0.000202107 0.0132389)
(0.000118621 -0.000234022 0.0135623)
(7.68089e-05 -0.00025635 0.01372)
(2.65079e-05 -0.000267458 0.0137817)
(-2.65079e-05 -0.000267458 0.0137817)
(-7.68089e-05 -0.00025635 0.01372)
(-0.000118621 -0.000234022 0.0135623)
(-0.000144919 -0.000202107 0.0132389)
(-0.000161992 -0.000161992 0.0126595)
(6.61878e-05 6.61878e-05 0.0125897)
(6.20938e-05 8.74059e-05 0.0132072)
(5.34718e-05 0.000105531 0.0135678)
(3.56094e-05 0.000118949 0.0137539)
(1.2471e-05 0.000125806 0.0138307)
(-1.2471e-05 0.000125806 0.0138307)
(-3.56094e-05 0.000118949 0.0137539)
(-5.34718e-05 0.000105531 0.0135678)
(-6.20938e-05 8.74059e-05 0.0132072)
(-6.61878e-05 6.61878e-05 0.0125897)
(8.74059e-05 6.20938e-05 0.0132072)
(8.56856e-05 8.56856e-05 0.0137341)
(7.25321e-05 0.000105079 0.0139707)
(4.82035e-05 0.000118785 0.0140638)
(1.68543e-05 0.000125787 0.0140932)
(-1.68543e-05 0.000125787 0.0140932)
(-4.82035e-05 0.000118785 0.0140638)
(-7.25321e-05 0.000105079 0.0139707)
(-8.56856e-05 8.56856e-05 0.0137341)
(-8.74059e-05 6.20938e-05 0.0132072)
(0.000105531 5.34718e-05 0.0135678)
(0.000105079 7.25321e-05 0.0139707)
(8.85855e-05 8.85855e-05 0.0141012)
(5.87169e-05 9.98021e-05 0.0141256)
(2.05049e-05 0.000105502 0.014123)
(-2.05049e-05 0.000105502 0.014123)
(-5.87169e-05 9.98021e-05 0.0141256)
(-8.85855e-05 8.85855e-05 0.0141012)
(-0.000105079 7.25321e-05 0.0139707)
(-0.000105531 5.34718e-05 0.0135678)
(0.000118949 3.56094e-05 0.0137539)
(0.000118785 4.82035e-05 0.0140638)
(9.98021e-05 5.87169e-05 0.0141256)
(6.59961e-05 6.59961e-05 0.0141108)
(2.30217e-05 6.9671e-05 0.0140917)
(-2.30217e-05 6.9671e-05 0.0140917)
(-6.59961e-05 6.59961e-05 0.0141108)
(-9.98021e-05 5.87169e-05 0.0141256)
(-0.000118785 4.82035e-05 0.0140638)
(-0.000118949 3.56094e-05 0.0137539)
(0.000125806 1.2471e-05 0.0138307)
(0.000125787 1.68543e-05 0.0140932)
(0.000105502 2.05049e-05 0.014123)
(6.9671e-05 2.30217e-05 0.0140917)
(2.42877e-05 2.42877e-05 0.0140659)
(-2.42876e-05 2.42877e-05 0.0140659)
(-6.9671e-05 2.30217e-05 0.0140917)
(-0.000105502 2.05049e-05 0.014123)
(-0.000125787 1.68543e-05 0.0140932)
(-0.000125806 1.2471e-05 0.0138307)
(0.000125806 -1.2471e-05 0.0138307)
(0.000125787 -1.68543e-05 0.0140932)
(0.000105502 -2.05049e-05 0.014123)
(6.9671e-05 -2.30217e-05 0.0140917)
(2.42877e-05 -2.42876e-05 0.0140659)
(-2.42876e-05 -2.42876e-05 0.0140659)
(-6.9671e-05 -2.30217e-05 0.0140917)
(-0.000105502 -2.05049e-05 0.014123)
(-0.000125787 -1.68543e-05 0.0140932)
(-0.000125806 -1.2471e-05 0.0138307)
(0.000118949 -3.56094e-05 0.0137539)
(0.000118785 -4.82035e-05 0.0140638)
(9.98021e-05 -5.87169e-05 0.0141256)
(6.59961e-05 -6.59961e-05 0.0141108)
(2.30217e-05 -6.9671e-05 0.0140917)
(-2.30217e-05 -6.9671e-05 0.0140917)
(-6.59961e-05 -6.59961e-05 0.0141108)
(-9.98021e-05 -5.87169e-05 0.0141256)
(-0.000118785 -4.82035e-05 0.0140638)
(-0.000118949 -3.56094e-05 0.0137539)
(0.000105531 -5.34718e-05 0.0135678)
(0.000105079 -7.25321e-05 0.0139707)
(8.85855e-05 -8.85855e-05 0.0141012)
(5.87169e-05 -9.98021e-05 0.0141256)
(2.05049e-05 -0.000105502 0.014123)
(-2.05049e-05 -0.000105502 0.014123)
(-5.87169e-05 -9.98021e-05 0.0141256)
(-8.85855e-05 -8.85855e-05 0.0141012)
(-0.000105079 -7.25321e-05 0.0139707)
(-0.000105531 -5.34718e-05 0.0135678)
(8.74059e-05 -6.20938e-05 0.0132072)
(8.56856e-05 -8.56856e-05 0.0137341)
(7.25321e-05 -0.000105079 0.0139707)
(4.82035e-05 -0.000118785 0.0140638)
(1.68543e-05 -0.000125787 0.0140932)
(-1.68543e-05 -0.000125787 0.0140932)
(-4.82035e-05 -0.000118785 0.0140638)
(-7.25321e-05 -0.000105079 0.0139707)
(-8.56856e-05 -8.56856e-05 0.0137341)
(-8.74059e-05 -6.20938e-05 0.0132072)
(6.61878e-05 -6.61878e-05 0.0125897)
(6.20938e-05 -8.74059e-05 0.0132072)
(5.34718e-05 -0.000105531 0.0135678)
(3.56094e-05 -0.000118949 0.0137539)
(1.2471e-05 -0.000125806 0.0138307)
(-1.2471e-05 -0.000125806 0.0138307)
(-3.56094e-05 -0.000118949 0.0137539)
(-5.34718e-05 -0.000105531 0.0135678)
(-6.20938e-05 -8.74059e-05 0.0132072)
(-6.61878e-05 -6.61878e-05 0.0125897)
(2.26119e-05 2.26119e-05 0.01255)
(2.24366e-05 3.18229e-05 0.0131797)
(2.04595e-05 4.03106e-05 0.0135552)
(1.40383e-05 4.69538e-05 0.013754)
(4.99945e-06 5.04389e-05 0.013838)
(-4.99945e-06 5.04389e-05 0.013838)
(-1.40383e-05 4.69538e-05 0.013754)
(-2.04595e-05 4.03106e-05 0.0135552)
(-2.24366e-05 3.18229e-05 0.0131797)
(-2.26119e-05 2.26119e-05 0.01255)
(3.18229e-05 2.24366e-05 0.0131797)
(3.37002e-05 3.37002e-05 0.0137332)
(3.02318e-05 4.37497e-05 0.0139968)
(2.07763e-05 5.12886e-05 0.014111)
(7.38578e-06 5.52569e-05 0.014152)
(-7.38577e-06 5.52569e-05 0.014152)
(-2.07763e-05 5.12886e-05 0.014111)
(-3.02318e-05 4.37497e-05 0.0139968)
(-3.37002e-05 3.37002e-05 0.0137332)
(-3.18229e-05 2.24366e-05 0.0131797)
(4.03106e-05 2.04595e-05 0.0135552)
(4.37497e-05 3.02318e-05 0.0139968)
(3.91244e-05 3.91244e-05 0.0141639)
(2.68355e-05 4.56855e-05 0.0142158)
(9.52391e-06 4.91123e-05 0.0142277)
(-9.5239e-06 4.91123e-05 0.0142277)
(-2.68355e-05 4.56855e-05 0.0142158)
(-3.91244e-05 3.91244e-05 0.0141639)
(-4.37497e-05 3.02318e-05 0.0139968)
(-4.03106e-05 2.04595e-05 0.0135552)
(4.69538e-05 1.40383e-05 0.013754)
(5.12886e-05 2.07763e-05 0.014111)
(4.56855e-05 2.68355e-05 0.0142158)
(3.12468e-05 3.12468e-05 0.0142323)
(1.10714e-05 3.35319e-05 0.0142292)
(-1.10714e-05 3.35319e-05 0.0142292)
(-3.12468e-05 3.12468e-05 0.0142323)
(-4.56855e-05 2.68355e-05 0.0142158)
(-5.12886e-05 2.07763e-05 0.014111)
(-4.69538e-05 1.40383e-05 0.013754)
(5.04389e-05 4.99945e-06 0.013838)
(5.52569e-05 7.38578e-06 0.014152)
(4.91123e-05 9.52391e-06 0.0142277)
(3.35319e-05 1.10714e-05 0.0142292)
(1.18696e-05 1.18696e-05 0.0142203)
(-1.18696e-05 1.18696e-05 0.0142203)
(-3.35319e-05 1.10714e-05 0.0142292)
(-4.91123e-05 9.52391e-06 0.0142277)
(-5.52569e-05 7.38578e-06 0.014152)
(-5.04389e-05 4.99945e-06 0.013838)
(5.04389e-05 -4.99945e-06 0.013838)
(5.52569e-05 -7.38577e-06 0.014152)
(4.91123e-05 -9.5239e-06 0.0142277)
(3.35319e-05 -1.10714e-05 0.0142292)
(1.18696e-05 -1.18696e-05 0.0142203)
(-1.18696e-05 -1.18696e-05 0.0142203)
(-3.35319e-05 -1.10714e-05 0.0142292)
(-4.91123e-05 -9.5239e-06 0.0142277)
(-5.52569e-05 -7.38577e-06 0.014152)
(-5.04389e-05 -4.99945e-06 0.013838)
(4.69538e-05 -1.40383e-05 0.013754)
(5.12886e-05 -2.07763e-05 0.014111)
(4.56855e-05 -2.68355e-05 0.0142158)
(3.12468e-05 -3.12468e-05 0.0142323)
(1.10714e-05 -3.35319e-05 0.0142292)
(-1.10714e-05 -3.35319e-05 0.0142292)
(-3.12468e-05 -3.12468e-05 0.0142323)
(-4.56855e-05 -2.68355e-05 0.0142158)
(-5.12886e-05 -2.07763e-05 0.014111)
(-4.69538e-05 -1.40383e-05 0.013754)
(4.03106e-05 -2.04595e-05 0.0135552)
(4.37497e-05 -3.02318e-05 0.0139968)
(3.91244e-05 -3.91244e-05 0.0141639)
(2.68355e-05 -4.56855e-05 0.0142158)
(9.52391e-06 -4.91123e-05 0.0142277)
(-9.5239e-06 -4.91123e-05 0.0142277)
(-2.68355e-05 -4.56855e-05 0.0142158)
(-3.91244e-05 -3.91244e-05 0.0141639)
(-4.37497e-05 -3.02318e-05 0.0139968)
(-4.03106e-05 -2.04595e-05 0.0135552)
(3.18229e-05 -2.24366e-05 0.0131797)
(3.37002e-05 -3.37002e-05 0.0137332)
(3.02318e-05 -4.37497e-05 0.0139968)
(2.07763e-05 -5.12886e-05 0.014111)
(7.38577e-06 -5.52569e-05 0.014152)
(-7.38577e-06 -5.52569e-05 0.014152)
(-2.07763e-05 -5.12886e-05 0.014111)
(-3.02318e-05 -4.37497e-05 0.0139968)
(-3.37002e-05 -3.37002e-05 0.0137332)
(-3.18229e-05 -2.24366e-05 0.0131797)
(2.26119e-05 -2.26119e-05 0.01255)
(2.24366e-05 -3.18229e-05 0.0131797)
(2.04595e-05 -4.03106e-05 0.0135552)
(1.40383e-05 -4.69538e-05 0.013754)
(4.99945e-06 -5.04389e-05 0.013838)
(-4.99945e-06 -5.04389e-05 0.013838)
(-1.40383e-05 -4.69538e-05 0.013754)
(-2.04595e-05 -4.03106e-05 0.0135552)
(-2.24366e-05 -3.18229e-05 0.0131797)
(-2.26119e-05 -2.26119e-05 0.01255)
(6.50013e-06 6.50013e-06 0.0125298)
(7.01465e-06 9.99568e-06 0.0131618)
(6.89762e-06 1.34427e-05 0.0135419)
(4.9104e-06 1.62825e-05 0.0137454)
(1.78553e-06 1.78074e-05 0.0138323)
(-1.78552e-06 1.78074e-05 0.0138323)
(-4.9104e-06 1.62825e-05 0.0137454)
(-6.89761e-06 1.34427e-05 0.0135419)
(-7.01464e-06 9.99567e-06 0.0131618)
(-6.50013e-06 6.50012e-06 0.0125298)
(9.99568e-06 7.01465e-06 0.0131618)
(1.16998e-05 1.16998e-05 0.0137243)
(1.12253e-05 1.61826e-05 0.0139991)
(8.00059e-06 1.97129e-05 0.0141232)
(2.89561e-06 2.1616e-05 0.0141697)
(-2.8956e-06 2.1616e-05 0.0141697)
(-8.00059e-06 1.97129e-05 0.0141232)
(-1.12253e-05 1.61826e-05 0.0139991)
(-1.16998e-05 1.16998e-05 0.0137243)
(-9.99567e-06 7.01464e-06 0.0131618)
(1.34427e-05 6.89762e-06 0.0135419)
(1.61826e-05 1.12253e-05 0.0139991)
(1.54207e-05 1.54207e-05 0.0141836)
(1.09517e-05 1.86547e-05 0.0142497)
(3.95047e-06 2.03806e-05 0.0142694)
(-3.95046e-06 2.03806e-05 0.0142694)
(-1.09517e-05 1.86547e-05 0.0142497)
(-1.54207e-05 1.54207e-05 0.0141836)
(-1.61826e-05 1.12253e-05 0.0139991)
(-1.34427e-05 6.89762e-06 0.0135419)
(1.62825e-05 4.9104e-06 0.0137454)
(1.97129e-05 8.00059e-06 0.0141232)
(1.86547e-05 1.09517e-05 0.0142497)
(1.31903e-05 1.31903e-05 0.0142832)
(4.74507e-06 1.43736e-05 0.0142892)
(-4.74506e-06 1.43736e-05 0.0142892)
(-1.31903e-05 1.31903e-05 0.0142832)
(-1.86547e-05 1.09517e-05 0.0142497)
(-1.97128e-05 8.00059e-06 0.0141232)
(-1.62825e-05 4.9104e-06 0.0137454)
(1.78074e-05 1.78552e-06 0.0138323)
(2.1616e-05 2.89561e-06 0.0141697)
(2.03806e-05 3.95047e-06 0.0142694)
(1.43736e-05 4.74507e-06 0.0142892)
(5.16318e-06 5.16318e-06 0.01429)
(-5.16317e-06 5.16318e-06 0.01429)
(-1.43736e-05 4.74507e-06 0.0142892)
(-2.03806e-05 3.95047e-06 0.0142694)
(-2.1616e-05 2.89561e-06 0.0141697)
(-1.78074e-05 1.78553e-06 0.0138323)
(1.78074e-05 -1.78552e-06 0.0138323)
(2.1616e-05 -2.8956e-06 0.0141697)
(2.03806e-05 -3.95046e-06 0.0142694)
(1.43736e-05 -4.74506e-06 0.0142892)
(5.16318e-06 -5.16317e-06 0.01429)
(-5.16317e-06 -5.16317e-06 0.01429)
(-1.43736e-05 -4.74506e-06 0.0142892)
(-2.03806e-05 -3.95046e-06 0.0142694)
(-2.1616e-05 -2.8956e-06 0.0141697)
(-1.78074e-05 -1.78552e-06 0.0138323)
(1.62825e-05 -4.9104e-06 0.0137454)
(1.97128e-05 -8.00059e-06 0.0141232)
(1.86547e-05 -1.09517e-05 0.0142497)
(1.31903e-05 -1.31903e-05 0.0142832)
(4.74507e-06 -1.43736e-05 0.0142892)
(-4.74506e-06 -1.43736e-05 0.0142892)
(-1.31903e-05 -1.31903e-05 0.0142832)
(-1.86547e-05 -1.09517e-05 0.0142497)
(-1.97128e-05 -8.00059e-06 0.0141232)
(-1.62825e-05 -4.9104e-06 0.0137454)
(1.34427e-05 -6.89762e-06 0.0135419)
(1.61826e-05 -1.12253e-05 0.0139991)
(1.54207e-05 -1.54207e-05 0.0141836)
(1.09517e-05 -1.86547e-05 0.0142497)
(3.95047e-06 -2.03806e-05 0.0142694)
(-3.95046e-06 -2.03806e-05 0.0142694)
(-1.09517e-05 -1.86547e-05 0.0142497)
(-1.54207e-05 -1.54207e-05 0.0141836)
(-1.61826e-05 -1.12253e-05 0.0139991)
(-1.34427e-05 -6.89761e-06 0.0135419)
(9.99567e-06 -7.01464e-06 0.0131618)
(1.16998e-05 -1.16998e-05 0.0137243)
(1.12253e-05 -1.61826e-05 0.0139991)
(8.00059e-06 -1.97128e-05 0.0141232)
(2.89561e-06 -2.1616e-05 0.0141697)
(-2.8956e-06 -2.1616e-05 0.0141697)
(-8.00059e-06 -1.97128e-05 0.0141232)
(-1.12253e-05 -1.61826e-05 0.0139991)
(-1.16998e-05 -1.16998e-05 0.0137243)
(-9.99568e-06 -7.01464e-06 0.0131618)
(6.50013e-06 -6.50013e-06 0.0125298)
(7.01464e-06 -9.99567e-06 0.0131618)
(6.89762e-06 -1.34427e-05 0.0135419)
(4.9104e-06 -1.62825e-05 0.0137454)
(1.78552e-06 -1.78074e-05 0.0138323)