/*--------------------------------*- C++ -*----------------------------------*\
| =========                 |                                                 |
| \\      /  F ield         | OpenFOAM: The Open Source CFD Toolbox           |
|  \\    /   O peration     | Version:  2412                                  |
|   \\  /    A nd           | Website:  www.openfoam.com                      |
|    \\/     M anipulation  |                                                 |
\*---------------------------------------------------------------------------*/
FoamFile
{
    version     2.0;
    format      ascii;
    arch        "LSB;label=32;scalar=64";
    class       volScalarField;
    location    "0.3";
    object      p;
}
// * * * * * * * * * * * * * * * * * * * * * * * * * * * * * * * * * * * * * //

dimensions      [0 2 -2 0 0 0 0];

internalField   nonuniform List<scalar> 
15000
(
0.82663
0.826626
0.826621
0.826612
0.826608
0.826608
0.826612
0.826621
0.826626
0.82663
0.826626
0.826613
0.826592
0.826576
0.826569
0.826569
0.826576
0.826592
0.826613
0.826626
0.826621
0.826592
0.82656
0.826538
0.826527
0.826527
0.826538
0.82656
0.826592
0.826621
0.826613
0.826577
0.826538
0.826511
0.826499
0.826499
0.826511
0.826538
0.826576
0.826612
0.826608
0.826569
0.826527
0.826499
0.826485
0.826485
0.826499
0.826527
0.826569
0.826608
0.826608
0.826569
0.826527
0.826499
0.826485
0.826485
0.826499
0.826527
0.826569
0.826608
0.826613
0.826577
0.826538
0.826511
0.826499
0.826499
0.826511
0.826538
0.826576
0.826612
0.826621
0.826593
0.82656
0.826538
0.826527
0.826527
0.826538
0.82656
0.826592
0.826621
0.826627
0.826614
0.826593
0.826577
0.826569
0.826569
0.826577
0.826592
0.826613
0.826626
0.82663
0.826627
0.826621
0.826613
0.826608
0.826608
0.826613
0.826621
0.826626
0.82663
0.823118
0.823129
0.823149
0.823155
0.823156
0.823156
0.823155
0.823149
0.823129
0.823117
0.823129
0.823134
0.823129
0.823124
0.823122
0.823122
0.823124
0.823129
0.823134
0.823129
0.823149
0.823129
0.823104
0.823089
0.823082
0.823082
0.823089
0.823104
0.823129
0.823149
0.823155
0.823124
0.823089
0.823066
0.823056
0.823056
0.823066
0.823089
0.823124
0.823155
0.823157
0.823122
0.823082
0.823056
0.823044
0.823044
0.823056
0.823082
0.823122
0.823156
0.823157
0.823122
0.823082
0.823056
0.823044
0.823044
0.823056
0.823082
0.823122
0.823156
0.823156
0.823125
0.823089
0.823066
0.823056
0.823056
0.823066
0.823089
0.823124
0.823155
0.82315
0.823129
0.823104
0.823089
0.823082
0.823082
0.823089
0.823104
0.823129
0.823149
0.823129
0.823135
0.82313
0.823125
0.823122
0.823122
0.823124
0.823129
0.823135
0.823129
0.823118
0.823129
0.82315
0.823156
0.823157
0.823157
0.823155
0.823149
0.823129
0.823118
0.810622
0.810642
0.810685
0.810702
0.810707
0.810707
0.810702
0.810685
0.810641
0.810622
0.810642
0.810655
0.810664
0.810668
0.810669
0.810669
0.810668
0.810664
0.810655
0.810641
0.810685
0.810664
0.810648
0.810639
0.810636
0.810636
0.810639
0.810648
0.810664
0.810685
0.810702
0.810668
0.810639
0.810621
0.810613
0.810613
0.810621
0.810639
0.810668
0.810702
0.810707
0.810669
0.810636
0.810613
0.810603
0.810603
0.810613
0.810636
0.810669
0.810707
0.810707
0.810669
0.810636
0.810613
0.810603
0.810603
0.810613
0.810636
0.810669
0.810707
0.810702
0.810668
0.81064
0.810622
0.810613
0.810613
0.810621
0.810639
0.810668
0.810702
0.810685
0.810664
0.810649
0.81064
0.810636
0.810636
0.810639
0.810648
0.810664
0.810685
0.810642
0.810655
0.810664
0.810668
0.810669
0.810669
0.810668
0.810664
0.810655
0.810642
0.810622
0.810642
0.810685
0.810702
0.810707
0.810707
0.810702
0.810685
0.810642
0.810622
0.794237
0.794268
0.794332
0.79436
0.794371
0.794371
0.79436
0.794332
0.794268
0.794237
0.794268
0.794298
0.794324
0.794339
0.794346
0.794346
0.794339
0.794323
0.794298
0.794268
0.794332
0.794324
0.794322
0.794323
0.794324
0.794324
0.794323
0.794321
0.794323
0.794332
0.794361
0.794339
0.794323
0.794314
0.79431
0.79431
0.794314
0.794323
0.794339
0.79436
0.794371
0.794346
0.794324
0.79431
0.794305
0.794305
0.79431
0.794324
0.794346
0.794371
0.794371
0.794346
0.794324
0.79431
0.794305
0.794305
0.79431
0.794324
0.794345
0.794371
0.794361
0.794339
0.794323
0.794314
0.79431
0.79431
0.794314
0.794323
0.794339
0.79436
0.794332
0.794324
0.794322
0.794323
0.794324
0.794324
0.794323
0.794322
0.794323
0.794332
0.794269
0.794298
0.794324
0.794339
0.794346
0.794346
0.794339
0.794324
0.794298
0.794268
0.794238
0.794269
0.794332
0.794361
0.794371
0.794371
0.79436
0.794332
0.794268
0.794237
0.774803
0.774841
0.774918
0.774955
0.774969
0.774969
0.774955
0.774918
0.774841
0.774803
0.774841
0.774881
0.774916
0.774938
0.774948
0.774949
0.774938
0.774916
0.774881
0.774841
0.774918
0.774916
0.77492
0.774927
0.774931
0.774931
0.774927
0.77492
0.774916
0.774918
0.774955
0.774938
0.774927
0.774922
0.774921
0.774921
0.774922
0.774927
0.774938
0.774954
0.774969
0.774949
0.774931
0.774921
0.774917
0.774917
0.774921
0.774931
0.774948
0.774968
0.774969
0.774949
0.774931
0.774921
0.774917
0.774917
0.774921
0.774931
0.774948
0.774968
0.774955
0.774939
0.774927
0.774922
0.774921
0.774921
0.774922
0.774926
0.774938
0.774954
0.774919
0.774916
0.77492
0.774927
0.774931
0.774931
0.774926
0.77492
0.774916
0.774918
0.774841
0.774882
0.774916
0.774939
0.774949
0.774949
0.774938
0.774916
0.774881
0.774841
0.774804
0.774841
0.774919
0.774955
0.774969
0.774969
0.774955
0.774918
0.774841
0.774803
0.753034
0.753078
0.753165
0.753208
0.753225
0.753225
0.753208
0.753164
0.753077
0.753033
0.753078
0.753128
0.75317
0.753198
0.753212
0.753212
0.753198
0.75317
0.753128
0.753077
0.753165
0.75317
0.753178
0.753189
0.753196
0.753196
0.753189
0.753178
0.75317
0.753164
0.753208
0.753199
0.753189
0.753188
0.753189
0.753189
0.753188
0.753189
0.753198
0.753208
0.753225
0.753212
0.753196
0.753189
0.753187
0.753187
0.753189
0.753196
0.753211
0.753225
0.753225
0.753212
0.753196
0.753189
0.753187
0.753187
0.753189
0.753196
0.753211
0.753225
0.753208
0.753199
0.753189
0.753188
0.753189
0.753189
0.753188
0.753189
0.753198
0.753208
0.753165
0.75317
0.753178
0.753189
0.753196
0.753196
0.753189
0.753178
0.75317
0.753165
0.753078
0.753129
0.75317
0.753199
0.753212
0.753212
0.753198
0.75317
0.753128
0.753078
0.753034
0.753078
0.753165
0.753208
0.753225
0.753225
0.753208
0.753165
0.753078
0.753033
0.729533
0.729581
0.729675
0.729723
0.729743
0.729743
0.729723
0.729674
0.72958
0.729532
0.729581
0.72964
0.729687
0.72972
0.729736
0.729736
0.72972
0.729687
0.72964
0.72958
0.729675
0.729687
0.729698
0.729713
0.729721
0.729721
0.729712
0.729697
0.729687
0.729674
0.729723
0.729721
0.729713
0.729714
0.729717
0.729717
0.729714
0.729712
0.72972
0.729723
0.729743
0.729736
0.729721
0.729717
0.729717
0.729717
0.729717
0.729721
0.729736
0.729742
0.729743
0.729736
0.729722
0.729717
0.729717
0.729717
0.729717
0.729721
0.729736
0.729742
0.729724
0.729721
0.729713
0.729714
0.729717
0.729717
0.729714
0.729712
0.72972
0.729723
0.729675
0.729688
0.729698
0.729713
0.729721
0.729721
0.729712
0.729698
0.729687
0.729674
0.729581
0.729641
0.729687
0.729721
0.729736
0.729736
0.72972
0.729687
0.72964
0.729581
0.729533
0.729581
0.729675
0.729723
0.729743
0.729743
0.729723
0.729675
0.729581
0.729532
0.704954
0.705004
0.705101
0.705153
0.705174
0.705174
0.705153
0.7051
0.705003
0.704953
0.705004
0.70507
0.705119
0.705156
0.705173
0.705173
0.705156
0.705119
0.705069
0.705003
0.705101
0.70512
0.705131
0.705149
0.705159
0.705159
0.705148
0.705131
0.705119
0.7051
0.705153
0.705156
0.705149
0.705153
0.705157
0.705157
0.705153
0.705148
0.705155
0.705152
0.705174
0.705173
0.705159
0.705157
0.705158
0.705158
0.705157
0.705159
0.705173
0.705174
0.705174
0.705173
0.705159
0.705157
0.705158
0.705158
0.705157
0.705159
0.705173
0.705173
0.705153
0.705156
0.705149
0.705153
0.705157
0.705157
0.705152
0.705148
0.705155
0.705152
0.705101
0.70512
0.705131
0.705149
0.705159
0.705159
0.705148
0.705131
0.705119
0.705101
0.705004
0.70507
0.70512
0.705156
0.705173
0.705173
0.705156
0.705119
0.705069
0.705004
0.704954
0.705004
0.705101
0.705153
0.705174
0.705174
0.705153
0.705101
0.705004
0.704953
0.679829
0.679879
0.679977
0.68003
0.680052
0.680052
0.68003
0.679976
0.679878
0.679828
0.679879
0.679948
0.679999
0.680037
0.680056
0.680056
0.680037
0.679998
0.679948
0.679878
0.679977
0.679999
0.680012
0.680031
0.680042
0.680042
0.68003
0.680011
0.679998
0.679975
0.68003
0.680038
0.680031
0.680036
0.680042
0.680042
0.680036
0.68003
0.680037
0.680029
0.680052
0.680056
0.680042
0.680042
0.680044
0.680044
0.680041
0.680042
0.680055
0.680051
0.680052
0.680056
0.680042
0.680042
0.680044
0.680044
0.680041
0.680042
0.680055
0.680051
0.68003
0.680038
0.680031
0.680036
0.680042
0.680041
0.680036
0.68003
0.680037
0.680029
0.679977
0.679999
0.680011
0.680031
0.680042
0.680042
0.68003
0.680011
0.679999
0.679976
0.679879
0.679949
0.679999
0.680038
0.680056
0.680056
0.680037
0.679999
0.679948
0.679879
0.679829
0.679879
0.679977
0.68003
0.680052
0.680052
0.68003
0.679976
0.679879
0.679828
0.654552
0.654602
0.654698
0.654751
0.654773
0.654773
0.654751
0.654697
0.654601
0.654552
0.654602
0.654673
0.654723
0.654762
0.654781
0.654781
0.654762
0.654722
0.654672
0.654601
0.654698
0.654723
0.654735
0.654755
0.654767
0.654767
0.654755
0.654734
0.654722
0.654696
0.654751
0.654762
0.654755
0.654762
0.654768
0.654768
0.654762
0.654755
0.654761
0.65475
0.654774
0.654781
0.654767
0.654768
0.654771
0.654771
0.654768
0.654767
0.65478
0.654773
0.654774
0.654781
0.654767
0.654768
0.654771
0.654771
0.654768
0.654767
0.65478
0.654773
0.654752
0.654762
0.654755
0.654762
0.654768
0.654768
0.654762
0.654755
0.654761
0.654751
0.654698
0.654723
0.654735
0.654755
0.654767
0.654767
0.654755
0.654735
0.654723
0.654697
0.654602
0.654673
0.654723
0.654762
0.654781
0.654781
0.654762
0.654723
0.654672
0.654602
0.654553
0.654602
0.654698
0.654751
0.654774
0.654773
0.654751
0.654697
0.654602
0.654552
0.629426
0.629474
0.629567
0.629619
0.629641
0.629641
0.629619
0.629566
0.629473
0.629425
0.629474
0.629545
0.629594
0.629633
0.629651
0.629651
0.629632
0.629593
0.629544
0.629473
0.629567
0.629594
0.629606
0.629626
0.629638
0.629638
0.629626
0.629605
0.629593
0.629566
0.62962
0.629633
0.629626
0.629634
0.62964
0.62964
0.629633
0.629626
0.629632
0.629619
0.629642
0.629652
0.629638
0.62964
0.629643
0.629643
0.62964
0.629638
0.629651
0.629641
0.629642
0.629652
0.629639
0.62964
0.629643
0.629643
0.62964
0.629638
0.629651
0.629641
0.62962
0.629633
0.629626
0.629634
0.62964
0.62964
0.629633
0.629626
0.629632
0.629619
0.629567
0.629594
0.629606
0.629626
0.629638
0.629638
0.629626
0.629606
0.629593
0.629566
0.629474
0.629545
0.629594
0.629633
0.629651
0.629651
0.629632
0.629594
0.629544
0.629474
0.629427
0.629474
0.629567
0.62962
0.629642
0.629641
0.629619
0.629566
0.629474
0.629426
0.604681
0.604727
0.604816
0.604867
0.604888
0.604888
0.604867
0.604815
0.604726
0.60468
0.604727
0.604796
0.604844
0.604882
0.6049
0.6049
0.604881
0.604843
0.604796
0.604726
0.604816
0.604844
0.604856
0.604876
0.604888
0.604888
0.604875
0.604855
0.604843
0.604815
0.604867
0.604882
0.604876
0.604884
0.60489
0.60489
0.604883
0.604875
0.604881
0.604866
0.604888
0.6049
0.604888
0.60489
0.604894
0.604894
0.60489
0.604888
0.604899
0.604888
0.604889
0.6049
0.604888
0.60489
0.604894
0.604893
0.60489
0.604887
0.604899
0.604887
0.604867
0.604882
0.604876
0.604884
0.60489
0.60489
0.604883
0.604875
0.604881
0.604866
0.604816
0.604844
0.604856
0.604876
0.604888
0.604888
0.604875
0.604855
0.604843
0.604815
0.604727
0.604797
0.604844
0.604882
0.6049
0.6049
0.604881
0.604844
0.604796
0.604727
0.604682
0.604727
0.604816
0.604867
0.604888
0.604888
0.604867
0.604815
0.604727
0.604681
0.580486
0.58053
0.580615
0.580664
0.580684
0.580684
0.580664
0.580614
0.580529
0.580485
0.58053
0.580597
0.580643
0.58068
0.580697
0.580697
0.580679
0.580642
0.580597
0.580529
0.580615
0.580643
0.580655
0.580675
0.580686
0.580686
0.580674
0.580654
0.580642
0.580614
0.580664
0.58068
0.580675
0.580683
0.580689
0.580689
0.580683
0.580674
0.580679
0.580663
0.580684
0.580697
0.580687
0.580689
0.580693
0.580693
0.580689
0.580686
0.580697
0.580684
0.580684
0.580697
0.580687
0.580689
0.580693
0.580693
0.580689
0.580686
0.580697
0.580684
0.580664
0.58068
0.580675
0.580683
0.580689
0.580689
0.580682
0.580674
0.580679
0.580663
0.580615
0.580643
0.580655
0.580675
0.580686
0.580686
0.580674
0.580655
0.580643
0.580615
0.58053
0.580598
0.580643
0.58068
0.580697
0.580697
0.580679
0.580643
0.580597
0.58053
0.580486
0.58053
0.580615
0.580664
0.580684
0.580684
0.580664
0.580615
0.58053
0.580485
0.556963
0.557006
0.557087
0.557134
0.557153
0.557153
0.557134
0.557087
0.557005
0.556963
0.557006
0.557071
0.557115
0.55715
0.557167
0.557167
0.55715
0.557114
0.55707
0.557005
0.557087
0.557115
0.557127
0.557146
0.557157
0.557158
0.557146
0.557127
0.557114
0.557087
0.557134
0.55715
0.557146
0.557154
0.557161
0.557161
0.557154
0.557146
0.557149
0.557133
0.557153
0.557167
0.557158
0.557161
0.557164
0.557164
0.557161
0.557157
0.557166
0.557153
0.557153
0.557167
0.557158
0.557161
0.557164
0.557164
0.55716
0.557157
0.557166
0.557152
0.557134
0.55715
0.557146
0.557154
0.557161
0.55716
0.557154
0.557146
0.557149
0.557133
0.557087
0.557115
0.557127
0.557146
0.557157
0.557157
0.557146
0.557127
0.557114
0.557087
0.557006
0.557071
0.557115
0.55715
0.557166
0.557166
0.557149
0.557114
0.55707
0.557006
0.556963
0.557006
0.557087
0.557134
0.557153
0.557153
0.557133
0.557087
0.557006
0.556963
0.5342
0.534242
0.53432
0.534364
0.534382
0.534382
0.534364
0.53432
0.534242
0.5342
0.534242
0.534304
0.534347
0.53438
0.534396
0.534396
0.53438
0.534347
0.534304
0.534242
0.53432
0.534347
0.53436
0.534378
0.534389
0.534389
0.534378
0.534359
0.534347
0.53432
0.534364
0.53438
0.534378
0.534386
0.534392
0.534392
0.534386
0.534378
0.53438
0.534364
0.534382
0.534396
0.534389
0.534392
0.534396
0.534396
0.534392
0.534389
0.534396
0.534382
0.534383
0.534396
0.534389
0.534392
0.534396
0.534396
0.534392
0.534388
0.534396
0.534382
0.534364
0.53438
0.534378
0.534386
0.534392
0.534392
0.534386
0.534378
0.53438
0.534364
0.53432
0.534347
0.53436
0.534378
0.534389
0.534388
0.534378
0.534359
0.534346
0.53432
0.534242
0.534304
0.534347
0.53438
0.534396
0.534396
0.53438
0.534346
0.534304
0.534242
0.534201
0.534242
0.53432
0.534364
0.534382
0.534382
0.534364
0.53432
0.534242
0.5342
0.512255
0.512296
0.51237
0.512412
0.512429
0.512429
0.512412
0.51237
0.512295
0.512255
0.512296
0.512355
0.512396
0.512427
0.512443
0.512443
0.512427
0.512396
0.512355
0.512295
0.51237
0.512396
0.512409
0.512427
0.512437
0.512437
0.512427
0.512409
0.512396
0.51237
0.512412
0.512427
0.512426
0.512434
0.51244
0.51244
0.512434
0.512426
0.512427
0.512412
0.512429
0.512443
0.512437
0.51244
0.512444
0.512444
0.51244
0.512437
0.512442
0.512429
0.512429
0.512443
0.512437
0.51244
0.512444
0.512444
0.51244
0.512437
0.512442
0.512429
0.512412
0.512427
0.512426
0.512434
0.51244
0.51244
0.512434
0.512426
0.512427
0.512412
0.51237
0.512396
0.512409
0.512426
0.512437
0.512436
0.512426
0.512409
0.512395
0.51237
0.512295
0.512355
0.512396
0.512427
0.512442
0.512442
0.512427
0.512395
0.512354
0.512295
0.512255
0.512296
0.51237
0.512412
0.512429
0.512429
0.512412
0.51237
0.512295
0.512255
0.491151
0.49119
0.491262
0.491302
0.491318
0.491318
0.491302
0.491262
0.49119
0.491151
0.49119
0.491247
0.491286
0.491317
0.491331
0.491331
0.491317
0.491287
0.491247
0.49119
0.491262
0.491286
0.4913
0.491316
0.491326
0.491326
0.491317
0.4913
0.491286
0.491262
0.491302
0.491317
0.491316
0.491324
0.49133
0.49133
0.491324
0.491316
0.491317
0.491302
0.491318
0.491331
0.491326
0.49133
0.491333
0.491333
0.49133
0.491326
0.491331
0.491318
0.491318
0.491331
0.491326
0.49133
0.491333
0.491333
0.49133
0.491326
0.491331
0.491318
0.491302
0.491317
0.491316
0.491324
0.49133
0.491329
0.491324
0.491316
0.491316
0.491302
0.491262
0.491286
0.491299
0.491316
0.491326
0.491326
0.491316
0.491299
0.491286
0.491262
0.49119
0.491247
0.491286
0.491316
0.491331
0.491331
0.491316
0.491286
0.491247
0.49119
0.491151
0.49119
0.491262
0.491302
0.491318
0.491318
0.491302
0.491262
0.49119
0.49115
0.470881
0.47092
0.470989
0.471027
0.471043
0.471043
0.471027
0.470989
0.47092
0.470881
0.47092
0.470974
0.471012
0.471041
0.471055
0.471055
0.471041
0.471012
0.470974
0.47092
0.470989
0.471012
0.471025
0.471041
0.47105
0.47105
0.471041
0.471025
0.471012
0.470989
0.471027
0.471041
0.471041
0.471048
0.471054
0.471054
0.471048
0.471041
0.471041
0.471027
0.471043
0.471054
0.47105
0.471053
0.471057
0.471057
0.471053
0.47105
0.471054
0.471043
0.471043
0.471054
0.47105
0.471053
0.471057
0.471057
0.471053
0.47105
0.471054
0.471043
0.471027
0.471041
0.471041
0.471048
0.471053
0.471053
0.471048
0.471041
0.471041
0.471027
0.470989
0.471012
0.471025
0.471041
0.47105
0.47105
0.471041
0.471025
0.471012
0.470989
0.47092
0.470974
0.471012
0.471041
0.471054
0.471054
0.471041
0.471012
0.470974
0.47092
0.470881
0.47092
0.470989
0.471027
0.471042
0.471042
0.471027
0.470989
0.47092
0.470881
0.451411
0.451448
0.451515
0.451551
0.451566
0.451566
0.451551
0.451515
0.451448
0.451411
0.451448
0.4515
0.451537
0.451564
0.451577
0.451578
0.451564
0.451537
0.4515
0.451448
0.451515
0.451537
0.451549
0.451564
0.451573
0.451573
0.451564
0.451549
0.451537
0.451515
0.451551
0.451564
0.451564
0.451571
0.451576
0.451576
0.451571
0.451564
0.451564
0.451551
0.451566
0.451577
0.451573
0.451576
0.451579
0.451579
0.451576
0.451573
0.451577
0.451566
0.451566
0.451577
0.451573
0.451576
0.451579
0.451579
0.451576
0.451573
0.451577
0.451566
0.451551
0.451564
0.451564
0.451571
0.451576
0.451576
0.451571
0.451564
0.451564
0.451551
0.451514
0.451537
0.451549
0.451564
0.451573
0.451573
0.451564
0.451549
0.451537
0.451515
0.451448
0.4515
0.451537
0.451564
0.451577
0.451577
0.451564
0.451537
0.4515
0.451448
0.451411
0.451448
0.451514
0.451551
0.451566
0.451566
0.451551
0.451514
0.451448
0.451411
0.432681
0.432717
0.432781
0.432816
0.432831
0.432831
0.432816
0.432781
0.432717
0.432681
0.432717
0.432767
0.432802
0.432829
0.432841
0.432841
0.432829
0.432802
0.432767
0.432717
0.432781
0.432802
0.432814
0.432828
0.432837
0.432837
0.432828
0.432814
0.432802
0.432781
0.432816
0.432829
0.432828
0.432834
0.432839
0.432839
0.432834
0.432828
0.432829
0.432816
0.432831
0.432841
0.432837
0.432839
0.432842
0.432842
0.432839
0.432837
0.432841
0.432831
0.432831
0.432841
0.432837
0.432839
0.432842
0.432842
0.432839
0.432837
0.432841
0.432831
0.432816
0.432829
0.432828
0.432834
0.432839
0.432839
0.432834
0.432828
0.432829
0.432816
0.432781
0.432802
0.432814
0.432828
0.432837
0.432837
0.432828
0.432814
0.432802
0.432781
0.432717
0.432767
0.432802
0.432829
0.432841
0.432841
0.432829
0.432802
0.432767
0.432717
0.432681
0.432717
0.432781
0.432816
0.432831
0.432831
0.432816
0.432781
0.432717
0.432681
0.41462
0.414655
0.414716
0.41475
0.414765
0.414765
0.41475
0.414716
0.414654
0.414619
0.414655
0.414703
0.414737
0.414762
0.414774
0.414774
0.414762
0.414737
0.414703
0.414654
0.414716
0.414737
0.414747
0.414761
0.414769
0.414769
0.414761
0.414747
0.414737
0.414716
0.41475
0.414762
0.414761
0.414767
0.414771
0.414771
0.414767
0.414761
0.414762
0.41475
0.414764
0.414774
0.414769
0.414771
0.414774
0.414774
0.414771
0.414769
0.414774
0.414764
0.414765
0.414774
0.414769
0.414771
0.414774
0.414774
0.414771
0.414769
0.414774
0.414764
0.41475
0.414762
0.414761
0.414767
0.414771
0.414771
0.414766
0.414761
0.414762
0.41475
0.414716
0.414737
0.414747
0.414761
0.414769
0.414769
0.414761
0.414747
0.414737
0.414716
0.414654
0.414703
0.414737
0.414762
0.414774
0.414774
0.414762
0.414737
0.414703
0.414655
0.414619
0.414655
0.414716
0.41475
0.414764
0.414764
0.41475
0.414716
0.414654
0.414619
0.39715
0.397184
0.397243
0.397276
0.39729
0.39729
0.397276
0.397243
0.397184
0.39715
0.397184
0.397232
0.397263
0.397288
0.3973
0.3973
0.397288
0.397263
0.397231
0.397184
0.397243
0.397263
0.397272
0.397286
0.397293
0.397293
0.397286
0.397272
0.397263
0.397243
0.397276
0.397288
0.397286
0.397291
0.397295
0.397295
0.397291
0.397286
0.397288
0.397276
0.39729
0.3973
0.397293
0.397295
0.397298
0.397298
0.397295
0.397293
0.3973
0.39729
0.39729
0.3973
0.397293
0.397295
0.397298
0.397297
0.397295
0.397293
0.3973
0.39729
0.397276
0.397288
0.397286
0.397291
0.397295
0.397295
0.397291
0.397286
0.397288
0.397276
0.397243
0.397263
0.397272
0.397286
0.397293
0.397293
0.397285
0.397272
0.397263
0.397243
0.397184
0.397231
0.397263
0.397288
0.3973
0.3973
0.397288
0.397263
0.397231
0.397184
0.39715
0.397184
0.397243
0.397276
0.39729
0.39729
0.397276
0.397243
0.397184
0.39715
0.380199
0.380231
0.380288
0.380321
0.380334
0.380334
0.380321
0.380288
0.380231
0.380198
0.380231
0.380278
0.380308
0.380332
0.380344
0.380344
0.380332
0.380308
0.380278
0.380231
0.380288
0.380309
0.380316
0.380329
0.380337
0.380337
0.380329
0.380316
0.380308
0.380288
0.380321
0.380332
0.380329
0.380334
0.380338
0.380338
0.380334
0.380329
0.380332
0.38032
0.380334
0.380344
0.380337
0.380338
0.38034
0.38034
0.380338
0.380337
0.380344
0.380334
0.380334
0.380344
0.380337
0.380338
0.38034
0.38034
0.380338
0.380336
0.380344
0.380334
0.380321
0.380332
0.380329
0.380334
0.380338
0.380338
0.380334
0.380329
0.380332
0.380321
0.380288
0.380308
0.380316
0.380329
0.380337
0.380336
0.380329
0.380316
0.380308
0.380288
0.380231
0.380278
0.380308
0.380332
0.380344
0.380344
0.380332
0.380308
0.380278
0.380231
0.380199
0.380231
0.380288
0.380321
0.380334
0.380334
0.380321
0.380288
0.380231
0.380198
0.3637
0.363731
0.363786
0.363818
0.363831
0.363831
0.363818
0.363786
0.363731
0.363699
0.363731
0.363777
0.363806
0.363829
0.363841
0.363841
0.363829
0.363806
0.363777
0.363731
0.363786
0.363806
0.363813
0.363825
0.363833
0.363833
0.363825
0.363813
0.363806
0.363786
0.363818
0.363829
0.363825
0.36383
0.363834
0.363834
0.36383
0.363825
0.363829
0.363817
0.363831
0.363841
0.363833
0.363834
0.363836
0.363836
0.363834
0.363833
0.36384
0.363831
0.363831
0.363841
0.363833
0.363834
0.363836
0.363836
0.363834
0.363832
0.36384
0.363831
0.363818
0.363829
0.363825
0.36383
0.363834
0.363834
0.36383
0.363825
0.363829
0.363818
0.363786
0.363806
0.363813
0.363825
0.363833
0.363833
0.363825
0.363813
0.363806
0.363786
0.363731
0.363777
0.363806
0.363829
0.363841
0.363841
0.363829
0.363806
0.363777
0.363731
0.3637
0.363731
0.363786
0.363818
0.363831
0.363831
0.363818
0.363786
0.363731
0.363699
0.347597
0.347628
0.347681
0.347712
0.347724
0.347724
0.347711
0.34768
0.347628
0.347597
0.347628
0.347673
0.347701
0.347723
0.347734
0.347734
0.347723
0.347701
0.347673
0.347628
0.347681
0.347701
0.347707
0.347719
0.347726
0.347726
0.347718
0.347707
0.347701
0.34768
0.347712
0.347723
0.347719
0.347723
0.347726
0.347726
0.347723
0.347718
0.347723
0.347711
0.347725
0.347734
0.347726
0.347726
0.347728
0.347728
0.347726
0.347726
0.347734
0.347724
0.347725
0.347734
0.347726
0.347726
0.347728
0.347728
0.347726
0.347725
0.347734
0.347724
0.347712
0.347723
0.347719
0.347723
0.347726
0.347726
0.347723
0.347718
0.347723
0.347711
0.347681
0.347701
0.347707
0.347719
0.347726
0.347726
0.347718
0.347707
0.347701
0.347681
0.347628
0.347673
0.347701
0.347723
0.347734
0.347734
0.347723
0.347701
0.347673
0.347628
0.347597
0.347628
0.347681
0.347712
0.347724
0.347724
0.347711
0.347681
0.347628
0.347597
0.331845
0.331875
0.331926
0.331956
0.331969
0.331969
0.331956
0.331926
0.331875
0.331845
0.331875
0.33192
0.331946
0.331968
0.331979
0.331979
0.331968
0.331946
0.331919
0.331875
0.331926
0.331946
0.331952
0.331963
0.33197
0.33197
0.331963
0.331951
0.331946
0.331926
0.331956
0.331968
0.331963
0.331967
0.33197
0.33197
0.331966
0.331963
0.331968
0.331956
0.331969
0.331979
0.33197
0.33197
0.331972
0.331972
0.33197
0.331969
0.331979
0.331969
0.331969
0.331979
0.33197
0.33197
0.331972
0.331972
0.33197
0.331969
0.331979
0.331969
0.331956
0.331968
0.331963
0.331967
0.33197
0.33197
0.331966
0.331963
0.331968
0.331956
0.331926
0.331946
0.331951
0.331963
0.33197
0.331969
0.331963
0.331951
0.331946
0.331926
0.331875
0.33192
0.331946
0.331968
0.331979
0.331979
0.331968
0.331946
0.331919
0.331875
0.331845
0.331875
0.331926
0.331956
0.331969
0.331969
0.331956
0.331926
0.331875
0.331845
0.316406
0.316435
0.316485
0.316514
0.316526
0.316526
0.316514
0.316484
0.316435
0.316406
0.316435
0.316479
0.316505
0.316526
0.316536
0.316536
0.316526
0.316504
0.316479
0.316435
0.316485
0.316505
0.316509
0.31652
0.316527
0.316527
0.31652
0.316509
0.316504
0.316484
0.316514
0.316526
0.31652
0.316524
0.316527
0.316527
0.316524
0.31652
0.316526
0.316514
0.316526
0.316536
0.316527
0.316527
0.316529
0.316529
0.316527
0.316527
0.316536
0.316526
0.316526
0.316536
0.316527
0.316527
0.316529
0.316529
0.316527
0.316527
0.316536
0.316526
0.316514
0.316526
0.31652
0.316524
0.316527
0.316527
0.316524
0.31652
0.316526
0.316514
0.316485
0.316505
0.316509
0.31652
0.316527
0.316527
0.31652
0.316509
0.316504
0.316484
0.316435
0.316479
0.316505
0.316526
0.316536
0.316536
0.316526
0.316505
0.316479
0.316435
0.316406
0.316435
0.316485
0.316514
0.316526
0.316526
0.316514
0.316484
0.316435
0.316406
0.301249
0.301278
0.301325
0.301354
0.301366
0.301366
0.301354
0.301325
0.301277
0.301249
0.301278
0.301321
0.301345
0.301366
0.301376
0.301376
0.301366
0.301345
0.30132
0.301277
0.301325
0.301345
0.301349
0.30136
0.301366
0.301366
0.30136
0.301349
0.301345
0.301325
0.301354
0.301366
0.30136
0.301363
0.301366
0.301366
0.301363
0.30136
0.301366
0.301354
0.301366
0.301376
0.301366
0.301366
0.301368
0.301368
0.301366
0.301366
0.301376
0.301366
0.301366
0.301376
0.301366
0.301366
0.301368
0.301368
0.301366
0.301366
0.301376
0.301366
0.301354
0.301366
0.30136
0.301363
0.301366
0.301366
0.301363
0.301359
0.301366
0.301354
0.301325
0.301345
0.301349
0.30136
0.301366
0.301366
0.301359
0.301349
0.301345
0.301325
0.301278
0.301321
0.301345
0.301366
0.301376
0.301376
0.301366
0.301345
0.30132
0.301277
0.301249
0.301278
0.301325
0.301354
0.301366
0.301366
0.301354
0.301325
0.301277
0.301249
0.286348
0.286375
0.286422
0.286449
0.286461
0.286461
0.286449
0.286421
0.286375
0.286347
0.286375
0.286418
0.286441
0.286462
0.286471
0.286471
0.286461
0.286441
0.286417
0.286375
0.286422
0.286441
0.286445
0.286455
0.286461
0.286461
0.286455
0.286445
0.286441
0.286421
0.28645
0.286462
0.286455
0.286458
0.286461
0.286461
0.286458
0.286455
0.286461
0.286449
0.286461
0.286471
0.286461
0.286461
0.286463
0.286463
0.286461
0.286461
0.286471
0.286461
0.286461
0.286471
0.286461
0.286461
0.286463
0.286463
0.286461
0.286461
0.286471
0.286461
0.28645
0.286462
0.286455
0.286458
0.286461
0.286461
0.286458
0.286455
0.286461
0.286449
0.286422
0.286441
0.286445
0.286455
0.286461
0.286461
0.286455
0.286445
0.286441
0.286421
0.286375
0.286418
0.286441
0.286462
0.286471
0.286471
0.286461
0.286441
0.286417
0.286375
0.286348
0.286375
0.286422
0.286449
0.286461
0.286461
0.286449
0.286421
0.286375
0.286348
0.271679
0.271706
0.271751
0.271778
0.271789
0.271789
0.271778
0.271751
0.271706
0.271679
0.271706
0.271748
0.27177
0.27179
0.2718
0.2718
0.27179
0.27177
0.271747
0.271706
0.271751
0.27177
0.271774
0.271783
0.271789
0.271789
0.271783
0.271773
0.27177
0.271751
0.271778
0.27179
0.271783
0.271786
0.271789
0.271789
0.271786
0.271783
0.27179
0.271778
0.27179
0.2718
0.271789
0.271789
0.271791
0.271791
0.271789
0.271789
0.2718
0.271789
0.27179
0.2718
0.271789
0.271789
0.271791
0.271791
0.271789
0.271789
0.2718
0.271789
0.271778
0.27179
0.271783
0.271786
0.271789
0.271789
0.271786
0.271783
0.27179
0.271778
0.271751
0.27177
0.271773
0.271783
0.271789
0.271789
0.271783
0.271773
0.27177
0.271751
0.271706
0.271748
0.27177
0.27179
0.2718
0.2718
0.27179
0.27177
0.271747
0.271706
0.271679
0.271706
0.271751
0.271778
0.271789
0.271789
0.271778
0.271751
0.271706
0.271679
0.257223
0.257249
0.257293
0.257319
0.257331
0.257331
0.257319
0.257293
0.257249
0.257223
0.257249
0.25729
0.257312
0.257331
0.257341
0.257341
0.257331
0.257312
0.25729
0.257249
0.257293
0.257312
0.257315
0.257324
0.25733
0.25733
0.257324
0.257315
0.257312
0.257293
0.257319
0.257331
0.257324
0.257327
0.25733
0.25733
0.257327
0.257324
0.257331
0.257319
0.257331
0.257341
0.25733
0.25733
0.257332
0.257332
0.25733
0.25733
0.257341
0.25733
0.257331
0.257341
0.25733
0.25733
0.257332
0.257332
0.25733
0.25733
0.257341
0.25733
0.257319
0.257331
0.257324
0.257327
0.25733
0.25733
0.257327
0.257324
0.257331
0.257319
0.257293
0.257312
0.257315
0.257324
0.25733
0.25733
0.257324
0.257315
0.257312
0.257293
0.257249
0.25729
0.257312
0.257331
0.257341
0.257341
0.257331
0.257312
0.25729
0.257249
0.257223
0.257249
0.257293
0.257319
0.257331
0.25733
0.257319
0.257293
0.257249
0.257223
0.242962
0.242987
0.24303
0.243056
0.243066
0.243066
0.243055
0.243029
0.242987
0.242961
0.242987
0.243027
0.243049
0.243067
0.243077
0.243077
0.243067
0.243049
0.243027
0.242987
0.24303
0.243049
0.243051
0.24306
0.243066
0.243066
0.24306
0.243051
0.243048
0.243029
0.243056
0.243067
0.24306
0.243063
0.243066
0.243066
0.243063
0.24306
0.243067
0.243055
0.243066
0.243077
0.243066
0.243066
0.243067
0.243067
0.243066
0.243066
0.243076
0.243066
0.243066
0.243077
0.243066
0.243066
0.243067
0.243067
0.243066
0.243066
0.243076
0.243066
0.243056
0.243067
0.24306
0.243063
0.243066
0.243066
0.243063
0.24306
0.243067
0.243055
0.24303
0.243049
0.243051
0.24306
0.243066
0.243066
0.24306
0.243051
0.243049
0.243029
0.242987
0.243027
0.243049
0.243067
0.243077
0.243076
0.243067
0.243049
0.243027
0.242987
0.242962
0.242987
0.24303
0.243055
0.243066
0.243066
0.243055
0.243029
0.242987
0.242962
0.228879
0.228904
0.228945
0.22897
0.228981
0.228981
0.22897
0.228945
0.228904
0.228879
0.228904
0.228943
0.228964
0.228982
0.228991
0.228991
0.228982
0.228964
0.228943
0.228904
0.228945
0.228964
0.228966
0.228975
0.22898
0.22898
0.228975
0.228966
0.228964
0.228945
0.22897
0.228982
0.228975
0.228977
0.22898
0.22898
0.228977
0.228975
0.228982
0.22897
0.228981
0.228991
0.22898
0.22898
0.228981
0.228981
0.22898
0.22898
0.228991
0.228981
0.228981
0.228991
0.22898
0.22898
0.228981
0.228981
0.22898
0.22898
0.228991
0.228981
0.22897
0.228982
0.228975
0.228977
0.22898
0.22898
0.228977
0.228974
0.228982
0.22897
0.228945
0.228964
0.228966
0.228975
0.22898
0.22898