/*--------------------------------*- C++ -*----------------------------------*\
| =========                 |                                                 |
| \\      /  F ield         | OpenFOAM: The Open Source CFD Toolbox           |
|  \\    /   O peration     | Version:  2412                                  |
|   \\  /    A nd           | Website:  www.openfoam.com                      |
|    \\/     M anipulation  |                                                 |
\*---------------------------------------------------------------------------*/
FoamFile
{
    version     2.0;
    format      ascii;
    arch        "LSB;label=32;scalar=64";
    class       surfaceScalarField;
    location    "0.3";
    object      phi;
}
// * * * * * * * * * * * * * * * * * * * * * * * * * * * * * * * * * * * * * //

dimensions      [0 3 -1 0 0 0 0];

oriented        oriented;

internalField   nonuniform List<scalar> 
43700
(
3.77175e-07
3.77194e-07
4.7145e-05
-4.48727e-07
-4.48754e-07
2.97596e-07
3.72821e-07
5.10938e-05
-4.48639e-07
2.0535e-07
3.72918e-07
5.41076e-05
-4.45234e-07
1.04689e-07
3.73144e-07
5.6142e-05
-4.43268e-07
-4.03352e-11
3.73194e-07
5.71667e-05
-4.42342e-07
-1.04739e-07
3.7319e-07
5.71667e-05
-4.42336e-07
-2.05371e-07
3.73132e-07
5.6142e-05
-4.43255e-07
-2.97624e-07
3.72896e-07
5.41076e-05
-4.45218e-07
-3.77185e-07
3.72793e-07
5.10938e-05
-4.48617e-07
3.77185e-07
4.7145e-05
-4.48736e-07
-4.48731e-07
3.72799e-07
2.97614e-07
5.10938e-05
-4.48615e-07
2.89342e-07
2.89364e-07
5.47512e-05
1.98118e-07
2.88646e-07
5.75445e-05
1.0071e-07
2.89236e-07
5.9431e-05
-4.19651e-11
2.89696e-07
6.03815e-05
-1.0077e-07
2.89698e-07
6.03815e-05
-1.98157e-07
2.89239e-07
5.9431e-05
-2.8938e-07
2.88641e-07
5.75445e-05
-3.72802e-07
2.89364e-07
5.47512e-05
2.97605e-07
5.10938e-05
-4.48625e-07
3.72897e-07
2.05366e-07
5.41076e-05
-4.45213e-07
2.88624e-07
1.98144e-07
5.75445e-05
1.96763e-07
1.96791e-07
6.0171e-05
9.97136e-08
1.97046e-07
6.19455e-05
-3.97156e-11
1.9744e-07
6.28398e-05
-9.97711e-08
1.9744e-07
6.28398e-05
-1.96809e-07
1.97048e-07
6.19455e-05
-2.88658e-07
1.96785e-07
6.0171e-05
-3.72912e-07
1.98138e-07
5.75445e-05
2.05354e-07
5.41076e-05
-4.45231e-07
3.73124e-07
1.04707e-07
5.6142e-05
-4.43248e-07
2.89215e-07
1.00741e-07
5.9431e-05
1.97017e-07
9.97476e-08
6.19455e-05
9.97295e-08
9.97649e-08
6.36449e-05
-4.00911e-11
9.99493e-08
6.45015e-05
-9.97857e-08
9.99479e-08
6.45015e-05
-1.97073e-07
9.97575e-08
6.36449e-05
-2.89253e-07
9.97431e-08
6.19455e-05
-3.73151e-07
1.0074e-07
5.9431e-05
1.04712e-07
5.6142e-05
-4.4327e-07
3.73176e-07
-1.93263e-11
5.71667e-05
-4.42323e-07
2.89676e-07
-8.9793e-12
6.03815e-05
1.9741e-07
-4.08837e-12
6.28398e-05
9.9913e-08
-2.49143e-12
6.45015e-05
-4.18015e-11
-2.34683e-12
6.53392e-05
-9.99767e-08
9.51164e-12
6.53392e-05
-1.97466e-07
1.11208e-11
6.45015e-05
-2.89715e-07
9.81993e-12
6.28398e-05
-3.73209e-07
9.53288e-12
6.03815e-05
5.74963e-12
5.71667e-05
-4.42352e-07
3.73172e-07
-1.0472e-07
5.71667e-05
-4.42318e-07
2.89679e-07
-1.00741e-07
6.03815e-05
1.9741e-07
-9.97405e-08
6.28398e-05
9.99125e-08
-9.9753e-08
6.45015e-05
-2.99378e-11
-9.99422e-08
6.53392e-05
-9.99754e-08
-9.99411e-08
6.53392e-05
-1.97469e-07
-9.97562e-08
6.45015e-05
-2.89718e-07
-9.97454e-08
6.28398e-05
-3.73217e-07
-1.00742e-07
6.03815e-05
-1.04716e-07
5.71667e-05
-4.42358e-07
3.73111e-07
-2.05357e-07
5.6142e-05
-4.43236e-07
2.89219e-07
-1.98134e-07
5.9431e-05
1.9702e-07
-1.96787e-07
6.19455e-05
9.9724e-08
-1.97052e-07
6.36449e-05
-2.76916e-11
-1.97446e-07
6.45015e-05
-9.97899e-08
-1.97448e-07
6.45015e-05
-1.97081e-07
-1.97059e-07
6.36449e-05
-2.8926e-07
-1.96808e-07
6.19455e-05
-3.73169e-07
-1.98162e-07
5.9431e-05
-2.05385e-07
5.6142e-05
-4.43288e-07
3.72869e-07
-2.9761e-07
5.41076e-05
-4.45194e-07
2.8862e-07
-2.89363e-07
5.75445e-05
1.96757e-07
-2.88644e-07
6.0171e-05
9.97093e-08
-2.89239e-07
6.19455e-05
-2.68841e-11
-2.89702e-07
6.28398e-05
-9.97762e-08
-2.89703e-07
6.28398e-05
-1.9683e-07
-2.89243e-07
6.19455e-05
-2.88671e-07
-2.88653e-07
6.0171e-05
-3.72942e-07
-2.89373e-07
5.75445e-05
-2.9763e-07
5.41076e-05
-4.45257e-07
3.72758e-07
-3.77168e-07
5.10938e-05
-4.48584e-07
2.8934e-07
-3.72783e-07
5.47512e-05
1.98112e-07
-3.72894e-07
5.75445e-05
1.00709e-07
-3.73138e-07
5.9431e-05
-2.38365e-11
-3.73196e-07
6.03815e-05
-1.0077e-07
-3.73202e-07
6.03815e-05
-1.98182e-07
-3.73152e-07
5.9431e-05
-2.89392e-07
-3.72924e-07
5.75445e-05
-3.72854e-07
-3.72834e-07
5.47512e-05
-3.77206e-07
5.10938e-05
-4.48664e-07
3.77145e-07
4.7145e-05
-4.4871e-07
-4.48691e-07
2.97592e-07
5.10938e-05
-4.48603e-07
2.05338e-07
5.41076e-05
-4.4521e-07
1.04695e-07
5.6142e-05
-4.43252e-07
-1.06996e-11
5.71667e-05
-4.42335e-07
-1.0473e-07
5.71667e-05
-4.42341e-07
-2.05396e-07
5.6142e-05
-4.43269e-07
-2.97642e-07
5.41076e-05
-4.45237e-07
-3.77222e-07
5.10938e-05
-4.48641e-07
4.7145e-05
-4.48784e-07
-4.48758e-07
1.04345e-06
1.04349e-06
4.75431e-05
-1.24248e-06
-1.24253e-06
8.21167e-07
1.03156e-06
5.1525e-05
-1.24051e-06
5.66471e-07
1.03189e-06
5.45645e-05
-1.23404e-06
2.88862e-07
1.03325e-06
5.66162e-05
-1.22989e-06
-7.82624e-11
1.03401e-06
5.76497e-05
-1.22801e-06
-2.88966e-07
1.034e-06
5.76497e-05
-1.228e-06
-5.6653e-07
1.03323e-06
5.66162e-05
-1.22987e-06
-8.21248e-07
1.03184e-06
5.45645e-05
-1.23401e-06
-1.0435e-06
1.03151e-06
5.1525e-05
-1.24047e-06
1.04346e-06
4.7543e-05
-1.24253e-06
-1.24249e-06
1.03151e-06
8.21208e-07
5.1525e-05
-1.24046e-06
8.00381e-07
8.00429e-07
5.52133e-05
5.47887e-07
7.9835e-07
5.80306e-05
2.78474e-07
8.00485e-07
5.99331e-05
-7.90088e-11
8.02226e-07
6.08918e-05
-2.78589e-07
8.02227e-07
6.08918e-05
-5.47972e-07
8.00483e-07
5.99331e-05
-8.00478e-07
7.98331e-07
5.80306e-05
-1.03155e-06
8.00421e-07
5.52133e-05
8.21192e-07
5.1525e-05
-1.24051e-06
1.03184e-06
5.66513e-07
5.45645e-05
-1.234e-06
7.98301e-07
5.4794e-07
5.80306e-05
5.44007e-07
5.44064e-07
6.06796e-05
2.75621e-07
5.45066e-07
6.24693e-05
-7.6178e-11
5.4645e-07
6.33713e-05
-2.75735e-07
5.46445e-07
6.33713e-05
-5.4411e-07
5.45058e-07
6.24693e-05
-7.98394e-07
5.44036e-07
6.06796e-05
-1.0319e-06
5.47911e-07
5.80306e-05
5.66476e-07
5.45645e-05
-1.23406e-06
1.03321e-06
2.8891e-07
5.66162e-05
-1.22985e-06
8.00437e-07
2.78536e-07
5.99331e-05
5.45007e-07
2.75687e-07
6.24693e-05
2.75792e-07
2.7586e-07
6.41833e-05
-8.12274e-11
2.76509e-07
6.50473e-05
-2.75913e-07
2.76501e-07
6.50473e-05
-5.45137e-07
2.7583e-07
6.41833e-05
-8.00542e-07
2.75655e-07
6.24693e-05
-1.03329e-06
2.7851e-07
5.99331e-05
2.88894e-07
5.66162e-05
-1.22992e-06
1.03397e-06
-2.56578e-11
5.76497e-05
-1.22797e-06
8.02181e-07
-1.30174e-11
6.08918e-05
5.4639e-07
-6.60581e-12
6.33713e-05
2.7644e-07
-9.00166e-12
6.50473e-05
-9.01783e-11
-1.51945e-11
6.58922e-05
-2.76586e-07
1.56663e-12
6.58922e-05
-5.46528e-07
1.6727e-13
6.50473e-05
-8.02293e-07
-4.47012e-12
6.33713e-05
-1.03407e-06
-4.16624e-12
6.08918e-05
-7.54131e-12
5.76497e-05
-1.22806e-06
1.03396e-06
-2.88916e-07
5.76497e-05
-1.22796e-06
8.02182e-07
-2.78527e-07
6.08918e-05
5.46385e-07
-2.75672e-07
6.33713e-05
2.76433e-07
-2.75846e-07
6.50473e-05
-7.32841e-11
-2.76517e-07
6.58922e-05
-2.76588e-07
-2.7652e-07
6.58922e-05
-5.46537e-07
-2.75868e-07
6.50473e-05
-8.023e-07
-2.75703e-07
6.33713e-05
-1.03408e-06
-2.78555e-07
6.08918e-05
-2.88936e-07
5.76497e-05
-1.22807e-06
1.03318e-06
-5.66485e-07
5.66162e-05
-1.22983e-06
8.00436e-07
-5.47919e-07
5.99331e-05
5.44999e-07
-5.44057e-07
6.24693e-05
2.75765e-07
-5.45085e-07
6.41833e-05
-7.39535e-11
-5.4648e-07
6.50473e-05
-2.75935e-07
-5.46489e-07
6.50473e-05
-5.45163e-07
-5.45113e-07
6.41833e-05
-8.00563e-07
-5.44117e-07
6.24693e-05
-1.03333e-06
-5.47992e-07
5.99331e-05
-5.66561e-07
5.66162e-05
-1.22995e-06
1.03179e-06
-8.21204e-07
5.45645e-05
-1.23396e-06
7.98281e-07
-8.00431e-07
5.80306e-05
5.43976e-07
-7.98352e-07
6.06796e-05
2.75588e-07
-8.00501e-07
6.24693e-05
-7.59345e-11
-8.02254e-07
6.33713e-05
-2.75766e-07
-8.02261e-07
6.33713e-05
-5.44166e-07
-8.00521e-07
6.24693e-05
-7.98429e-07
-7.98386e-07
6.06796e-05
-1.03196e-06
-8.00467e-07
5.80306e-05
-8.21257e-07
5.45645e-05
-1.2341e-06
1.03144e-06
-1.04345e-06
5.1525e-05
-1.24041e-06
8.00365e-07
-1.0315e-06
5.52133e-05
5.47854e-07
-1.03186e-06
5.80306e-05
2.78445e-07
-1.03326e-06
5.99331e-05
-7.14197e-11
-1.03403e-06
6.08918e-05
-2.78612e-07
-1.03404e-06
6.08918e-05
-5.48038e-07
-1.03329e-06
5.99331e-05
-8.00509e-07
-1.03192e-06
5.80306e-05
-1.03164e-06
-1.0316e-06
5.52133e-05
-1.04353e-06
5.1525e-05
-1.24057e-06
1.04338e-06
4.7543e-05
-1.24246e-06
-1.24242e-06
8.21147e-07
5.1525e-05
-1.24045e-06
5.66427e-07
5.45645e-05
-1.23401e-06
2.88845e-07
5.66162e-05
-1.22988e-06
-5.56358e-11
5.76497e-05
-1.22801e-06
-2.88977e-07
5.76497e-05
-1.22803e-06
-5.66596e-07
5.66162e-05
-1.22991e-06
-8.21292e-07
5.45645e-05
-1.23406e-06
-1.04356e-06
5.1525e-05
-1.24053e-06
4.7543e-05
-1.2426e-06
-1.24256e-06
1.64409e-06
1.64415e-06
4.81733e-05
-1.95922e-06
-1.95928e-06
1.2923e-06
1.6279e-06
5.22079e-05
-1.95909e-06
8.90986e-07
1.62847e-06
5.52875e-05
-1.95012e-06
4.54206e-07
1.63061e-06
5.73662e-05
-1.94393e-06
-1.08593e-10
1.6318e-06
5.84133e-05
-1.94114e-06
-4.54349e-07
1.63179e-06
5.84133e-05
-1.94113e-06
-8.9107e-07
1.63058e-06
5.73662e-05
-1.9439e-06
-1.29243e-06
1.62841e-06
5.52875e-05
-1.95009e-06
-1.64418e-06
1.62783e-06
5.22079e-05
-1.95904e-06
1.64411e-06
4.81733e-05
-1.95931e-06
-1.95924e-06
1.62783e-06
1.29237e-06
5.22079e-05
-1.95902e-06
1.26208e-06
1.26215e-06
5.59447e-05
8.63389e-07
1.25884e-06
5.87989e-05
4.38664e-07
1.26201e-06
6.07264e-05
-1.08827e-10
1.26463e-06
6.16976e-05
-4.38821e-07
1.26464e-06
6.16976e-05
-8.63509e-07
1.26202e-06
6.07264e-05
-1.26223e-06
1.25882e-06
5.87989e-05
-1.62791e-06
1.26215e-06
5.59447e-05
1.29237e-06
5.22079e-05
-1.95911e-06
1.6284e-06
8.9105e-07
5.52875e-05
-1.95005e-06
1.25877e-06
8.63467e-07
5.87989e-05
8.57291e-07
8.57375e-07
6.14825e-05
4.34197e-07
8.58791e-07
6.32956e-05
-1.02699e-10
8.60838e-07
6.42094e-05
-4.34349e-07
8.6083e-07
6.42094e-05
-8.57435e-07
8.58778e-07
6.32956e-05
-1.2589e-06
8.57332e-07
6.14825e-05
-1.6285e-06
8.63426e-07
5.87989e-05
8.91002e-07
5.52875e-05
-1.95017e-06
1.63054e-06
4.54279e-07
5.73662e-05
-1.94387e-06
1.26194e-06
4.38754e-07
6.07264e-05
8.58705e-07
4.34293e-07
6.32956e-05
4.3439e-07
4.34488e-07
6.50319e-05
-1.1079e-10
4.35435e-07
6.59072e-05
-4.34551e-07
4.35421e-07
6.59072e-05
-8.5889e-07
4.34438e-07
6.50319e-05
-1.2621e-06
4.34241e-07
6.32956e-05
-1.63068e-06
4.38712e-07
6.07264e-05
4.54254e-07
5.73662e-05
-1.94399e-06
1.63174e-06
-2.7888e-11
5.84133e-05
-1.94108e-06
1.26456e-06
-1.18678e-11
6.16976e-05
8.60749e-07
-2.00946e-12
6.42094e-05
4.35335e-07
-6.74355e-12
6.59072e-05
-1.25803e-10
-1.83297e-11
6.67631e-05
-4.35538e-07
5.31295e-12
6.67631e-05
-8.60949e-07
1.70498e-12
6.59072e-05
-1.26473e-06
-5.55956e-12
6.42094e-05
-1.63189e-06
-4.02477e-12
6.16976e-05
-6.53245e-12
5.84133e-05
-1.94122e-06
1.63173e-06
-4.54269e-07
5.84133e-05
-1.94107e-06
1.26456e-06
-4.38726e-07
6.16976e-05
8.6074e-07
-4.34254e-07
6.42094e-05
4.35323e-07
-4.34452e-07
6.59072e-05
-1.02051e-10
-4.35436e-07
6.67631e-05
-4.35544e-07
-4.35444e-07
6.67631e-05
-8.60963e-07
-4.34491e-07
6.59072e-05
-1.26474e-06
-4.34308e-07
6.42094e-05
-1.63191e-06
-4.38774e-07
6.16976e-05
-4.54304e-07
5.84133e-05
-1.94123e-06
1.6305e-06
-8.90993e-07
5.73662e-05
-1.94383e-06
1.26194e-06
-8.63423e-07
6.07264e-05
8.58689e-07
-8.5735e-07
6.32956e-05
4.34342e-07
-8.58806e-07
6.50319e-05
-1.05381e-10
-8.60871e-07
6.59072e-05
-4.3459e-07
-8.60885e-07
6.59072e-05
-8.5893e-07
-8.58851e-07
6.50319e-05
-1.26213e-06
-8.57444e-07
6.32956e-05
-1.63072e-06
-8.63535e-07
6.07264e-05
-8.91109e-07
5.73662e-05
-1.94403e-06
1.62832e-06
-1.29236e-06
5.52875e-05
-1.95001e-06
1.25873e-06
-1.26214e-06
5.87989e-05
8.57241e-07
-1.25883e-06
6.14825e-05
4.34142e-07
-1.26202e-06
6.32956e-05
-1.09379e-10
-1.26466e-06
6.42094e-05
-4.34401e-07
-1.26467e-06
6.42094e-05
-8.57521e-07
-1.26206e-06
6.32956e-05
-1.25895e-06
-1.25888e-06
6.14825e-05
-1.62858e-06
-1.2622e-06
5.87989e-05
-1.29243e-06
5.52875e-05
-1.95022e-06
1.62773e-06
-1.64409e-06
5.22079e-05
-1.95895e-06
1.26206e-06
-1.62781e-06
5.59447e-05
8.63336e-07
-1.62842e-06
5.87989e-05
4.38615e-07
-1.6306e-06
6.07264e-05
-1.02754e-10
-1.63182e-06
6.16976e-05
-4.38859e-07
-1.63184e-06
6.16976e-05
-8.63607e-07
-1.63065e-06
6.07264e-05
-1.26227e-06
-1.62851e-06
5.87989e-05
-1.62803e-06
-1.62796e-06
5.59447e-05
-1.64421e-06
5.22079e-05
-1.95919e-06
1.64401e-06
4.81733e-05
-1.9592e-06
-1.95914e-06
1.29228e-06
5.22079e-05
-1.95901e-06
8.90917e-07
5.52875e-05
-1.95007e-06
4.54173e-07
5.73662e-05
-1.94391e-06
-8.30172e-11
5.84133e-05
-1.94114e-06
-4.54371e-07
5.84133e-05
-1.94116e-06
-8.91168e-07
5.73662e-05
-1.94396e-06
-1.29249e-06
5.52875e-05
-1.95015e-06
-1.64426e-06
5.22079e-05
-1.95912e-06
4.81733e-05
-1.9594e-06
-1.95934e-06
2.04444e-06
2.04452e-06
4.89596e-05
-2.43755e-06
-2.43762e-06
1.60611e-06
2.02383e-06
5.30593e-05
-2.43682e-06
1.10714e-06
2.02431e-06
5.61884e-05
-2.42621e-06
5.64346e-07
2.02704e-06
5.83006e-05
-2.41873e-06
-1.38324e-10
2.02863e-06
5.93646e-05
-2.41538e-06
-5.64521e-07
2.02862e-06
5.93646e-05
-2.41537e-06
-1.10724e-06
2.02701e-06
5.83006e-05
-2.4187e-06
-1.60629e-06
2.02425e-06
5.61884e-05
-2.42618e-06
-2.04458e-06
2.02375e-06
5.30592e-05
-2.43678e-06
2.0445e-06
4.89596e-05
-2.43767e-06
-2.43759e-06
2.02373e-06
1.60619e-06
5.30593e-05
-2.43674e-06
1.56828e-06
1.56837e-06
5.68555e-05
1.07251e-06
1.56393e-06
5.97551e-05
5.4481e-07
1.56785e-06
6.17133e-05
-1.37116e-10
1.57115e-06
6.27e-05
-5.45001e-07
1.57115e-06
6.27e-05
-1.07266e-06
1.56785e-06
6.17133e-05
-1.56848e-06
1.5639e-06
5.97551e-05
-2.02384e-06
1.56838e-06
5.68554e-05
1.60619e-06
5.30592e-05
-2.43686e-06
2.02421e-06
1.10722e-06
5.61884e-05
-2.42611e-06
1.56383e-06
1.07262e-06
5.97551e-05
1.0646e-06
1.06471e-06
6.24809e-05
5.39051e-07
1.0664e-06
6.43226e-05
-1.28009e-10
1.06895e-06
6.52508e-05
-5.39235e-07
1.06894e-06
6.52508e-05
-1.06478e-06
1.06638e-06
6.43226e-05
-1.56401e-06
1.06465e-06
6.24809e-05
-2.02436e-06
1.07256e-06
5.9755e-05
1.10715e-06
5.61884e-05
-2.42627e-06
2.02693e-06
5.64444e-07
5.83006e-05
-2.41863e-06
1.56774e-06
5.44928e-07
6.17133e-05
1.06628e-06
5.39176e-07
6.43226e-05
5.39234e-07
5.39361e-07
6.6086e-05
-1.39967e-10
5.40534e-07
6.69749e-05
-5.39432e-07
5.40513e-07
6.69749e-05
-1.06652e-06
5.39287e-07
6.6086e-05
-1.56796e-06
5.39096e-07
6.43226e-05
-2.02713e-06
5.44863e-07
6.17133e-05
5.644e-07
5.83006e-05
-2.41881e-06
2.02852e-06
-3.05317e-11
5.93646e-05
-2.41528e-06
1.57105e-06
-1.10132e-11
6.27e-05
1.06883e-06
2.68821e-12
6.52508e-05
5.40404e-07
-5.22642e-12
6.69749e-05
-1.62949e-10
-2.34219e-11
6.78442e-05
-5.40664e-07
8.19447e-12
6.78442e-05
-1.0691e-06
1.59208e-12
6.69749e-05
-1.57128e-06
-9.50192e-12
6.52508e-05
-2.02875e-06
-6.26712e-12
6.27e-05
-7.89151e-12
5.93645e-05
-2.41549e-06
2.02851e-06
-5.64412e-07
5.93646e-05
-2.41526e-06
1.57104e-06
-5.44877e-07
6.27e-05
1.06882e-06
-5.39108e-07
6.52508e-05
5.40383e-07
-5.39301e-07
6.69749e-05
-1.31696e-10
-5.40529e-07
6.78442e-05
-5.40675e-07
-5.40542e-07
6.78442e-05
-1.06912e-06
-5.39362e-07
6.69749e-05
-1.57129e-06
-5.39193e-07
6.52508e-05
-2.02878e-06
-5.44949e-07
6.27e-05
-5.64468e-07
5.93645e-05
-2.4155e-06
2.02688e-06
-1.10713e-06
5.83006e-05
-2.41858e-06
1.56773e-06
-1.07254e-06
6.17133e-05
1.06625e-06
-1.06466e-06
6.43226e-05
5.3916e-07
-1.06641e-06
6.6086e-05
-1.39044e-10
-1.06899e-06
6.69749e-05
-5.39492e-07
-1.06901e-06
6.69749e-05
-1.06658e-06
-1.06647e-06
6.6086e-05
-1.568e-06
-1.0648e-06
6.43226e-05
-2.02719e-06
-1.07271e-06
6.17133e-05
-1.1073e-06
5.83006e-05
-2.41886e-06
2.02411e-06
-1.60617e-06
5.61884e-05
-2.42605e-06
1.56378e-06
-1.56836e-06
5.97551e-05
1.06452e-06
-1.5639e-06
6.24809e-05
5.38964e-07
-1.56785e-06
6.43226e-05
-1.46311e-10
-1.57118e-06
6.52508e-05
-5.39316e-07
-1.57119e-06
6.52508e-05
-1.06491e-06
-1.5679e-06
6.43226e-05
-1.56408e-06
-1.56398e-06
6.24809e-05
-2.02446e-06
-1.56844e-06
5.97551e-05
-1.60628e-06
5.61884e-05
-2.42635e-06
2.02359e-06
-2.04445e-06
5.30592e-05
-2.43663e-06
1.56825e-06
-2.0237e-06
5.68554e-05
1.07243e-06
-2.02423e-06
5.9755e-05
5.44731e-07
-2.02702e-06
6.17133e-05
-1.38116e-10
-2.02864e-06
6.27e-05
-5.45063e-07
-2.02867e-06
6.27e-05
-1.07281e-06
-2.02709e-06
6.17133e-05
-1.56853e-06
-2.02437e-06
5.97551e-05
-2.02401e-06
-2.02391e-06
5.68555e-05
-2.0446e-06
5.30592e-05
-2.43696e-06
2.04434e-06
4.89596e-05
-2.43751e-06
-2.43743e-06
1.60607e-06
5.30592e-05
-2.43672e-06
1.10703e-06
5.61884e-05
-2.42614e-06
5.64288e-07
5.83006e-05
-2.41869e-06
-1.13055e-10
5.93645e-05
-2.41537e-06
-5.64561e-07
5.93645e-05
-2.4154e-06
-1.10738e-06
5.83006e-05
-2.41876e-06
-1.60636e-06
5.61884e-05
-2.42625e-06
-2.04468e-06
5.30592e-05
-2.43687e-06
4.89596e-05
-2.43779e-06
-2.4377e-06
2.31925e-06
2.31934e-06
4.98529e-05
-2.76591e-06
-2.766e-06
1.82146e-06
2.29508e-06
5.40263e-05
-2.76431e-06
1.25548e-06
2.29567e-06
5.72115e-05
-2.75274e-06
6.39938e-07
2.29902e-06
5.93616e-05
-2.74457e-06
-1.59836e-10
2.30103e-06
6.04446e-05
-2.74096e-06
-6.40123e-07
2.30102e-06
6.04446e-05
-2.74094e-06
-1.25557e-06
2.29898e-06
5.93616e-05
-2.74454e-06
-1.82167e-06
2.29558e-06
5.72115e-05
-2.7527e-06
-2.31943e-06
2.29497e-06
5.40262e-05
-2.76425e-06
2.31931e-06
4.98529e-05
-2.76607e-06
-2.76596e-06
2.29497e-06
1.82155e-06
5.40263e-05
-2.7642e-06
1.77787e-06
1.77798e-06
5.78894e-05
1.2156e-06
1.77282e-06
6.08402e-05
6.17426e-07
1.77744e-06
6.2833e-05
-1.58336e-10
1.78136e-06
6.38371e-05
-6.17633e-07
1.78136e-06
6.38371e-05
-1.21576e-06
1.77745e-06
6.2833e-05
-1.77811e-06
1.77278e-06
6.08402e-05
-2.2951e-06
1.77798e-06
5.78894e-05
1.82155e-06
5.40262e-05
-2.76436e-06
2.29555e-06
1.25557e-06
5.72115e-05
-2.75262e-06
1.7727e-06
1.21572e-06
6.08402e-05
1.20641e-06
1.20653e-06
6.36135e-05
6.10738e-07
1.20852e-06
6.54872e-05
-1.45975e-10
1.21153e-06
6.64315e-05
-6.10935e-07
1.21151e-06
6.64315e-05
-1.20661e-06
1.20849e-06
6.54872e-05
-1.77293e-06
1.20644e-06
6.36135e-05
-2.29574e-06
1.21562e-06
6.08402e-05
1.25546e-06
5.72115e-05
-2.75283e-06
2.2989e-06
6.40041e-07
5.93616e-05
-2.74445e-06
1.77732e-06
6.17553e-07
6.2833e-05
1.20839e-06
6.10873e-07
6.54872e-05
6.10959e-07
6.11098e-07
6.72809e-05
-1.64127e-10
6.12471e-07
6.81851e-05
-6.11179e-07
6.1244e-07
6.81851e-05
-1.20868e-06
6.10988e-07
6.72809e-05
-1.77759e-06
6.10753e-07
6.54872e-05
-2.29915e-06
6.17451e-07
6.2833e-05
6.39968e-07
5.93615e-05
-2.74469e-06
2.30091e-06
-4.41333e-11
6.04446e-05
-2.74083e-06
1.78123e-06
-2.15546e-11
6.38371e-05
1.21139e-06
-4.57365e-12
6.64315e-05
6.12329e-07
-1.74546e-11
6.81851e-05
-1.98599e-10
-4.47607e-11
6.90692e-05
-6.12639e-07
-4.44963e-12
6.90692e-05
-1.21172e-06
-1.57409e-11
6.81851e-05
-1.78153e-06
-3.22983e-11
6.64315e-05
-2.3012e-06
-2.78109e-11
6.38371e-05
-2.75885e-11
6.04446e-05
-2.7411e-06
2.30088e-06
-6.40004e-07
6.04446e-05
-2.7408e-06
1.78123e-06
-6.17497e-07
6.38371e-05
1.21137e-06
-6.10797e-07
6.64315e-05
6.12298e-07
-6.11035e-07
6.81851e-05
-1.59628e-10
-6.12488e-07
6.90692e-05
-6.12658e-07
-6.12509e-07
6.90692e-05
-1.21175e-06
-6.11125e-07
6.81851e-05
-1.78155e-06
-6.10922e-07
6.64315e-05
-2.30124e-06
-6.17604e-07
6.38371e-05
-6.40091e-07
6.04446e-05
-2.74113e-06
2.29883e-06
-1.25545e-06
5.93616e-05
-2.74438e-06
1.77731e-06
-1.21563e-06
6.2833e-05
1.20834e-06
-1.20648e-06
6.54872e-05
6.1085e-07
-1.20855e-06
6.72809e-05
-1.72886e-10
-1.2116e-06
6.81851e-05
-6.11272e-07
-1.21163e-06
6.81851e-05
-1.20877e-06
-1.20865e-06
6.72809e-05
-1.77765e-06
-1.20668e-06
6.54872e-05
-2.29924e-06
-1.21586e-06
6.2833e-05
-1.25569e-06
5.93616e-05
-2.74476e-06
2.29541e-06
-1.82154e-06
5.72115e-05
-2.75253e-06
1.77263e-06
-1.77797e-06
6.08402e-05
1.20629e-06
-1.7728e-06
6.36135e-05
6.10606e-07
-1.77746e-06
6.54872e-05
-1.85458e-10
-1.78141e-06
6.64315e-05
-6.1106e-07
-1.78143e-06
6.64315e-05
-1.2068e-06
-1.77753e-06
6.54872e-05
-1.77303e-06
-1.77291e-06
6.36135e-05
-2.29587e-06
-1.77808e-06
6.08402e-05
-1.82169e-06
5.72115e-05
-2.75294e-06
2.29477e-06
-2.31927e-06
5.40262e-05
-2.76406e-06
1.77782e-06
-2.29492e-06
5.78894e-05
1.21548e-06
-2.29557e-06
6.08402e-05
6.17303e-07
-2.29901e-06
6.2833e-05
-1.76342e-10
-2.30106e-06
6.38371e-05
-6.17733e-07
-2.3011e-06
6.38371e-05
-1.21597e-06
-2.29911e-06
6.2833e-05
-1.77819e-06
-2.29575e-06
6.08402e-05
-2.29532e-06
-2.29521e-06
5.78894e-05
-2.31947e-06
5.40263e-05
-2.76451e-06
2.31912e-06
4.98529e-05
-2.76587e-06
-2.76576e-06
1.8214e-06
5.40262e-05
-2.76418e-06
1.25532e-06
5.72115e-05
-2.75266e-06
6.39841e-07
5.93615e-05
-2.74453e-06
-1.46066e-10
6.04446e-05
-2.74096e-06
-6.40196e-07
6.04446e-05
-2.74099e-06
-1.25579e-06
5.93616e-05
-2.74463e-06
-1.82178e-06
5.72115e-05
-2.75281e-06
-2.31957e-06
5.40263e-05
-2.76439e-06
4.98529e-05
-2.76623e-06
-2.76613e-06
2.49513e-06
2.49521e-06
5.08151e-05
-2.97619e-06
-2.97628e-06
1.95916e-06
2.46759e-06
5.50675e-05
-2.97285e-06
1.35035e-06
2.46831e-06
5.8313e-05
-2.96082e-06
6.88291e-07
2.47229e-06
6.05036e-05
-2.95242e-06
-1.70061e-10
2.47474e-06
6.16071e-05
-2.94875e-06
-6.88461e-07
2.47472e-06
6.16071e-05
-2.94872e-06
-1.35041e-06
2.47223e-06
6.05036e-05
-2.95237e-06
-1.95939e-06
2.46819e-06
5.8313e-05
-2.96077e-06
-2.49533e-06
2.46745e-06
5.50675e-05
-2.97277e-06
2.49517e-06
5.08151e-05
-2.97636e-06
-2.97622e-06
2.46748e-06
1.95924e-06
5.50675e-05
-2.97274e-06
1.91094e-06
1.91105e-06
5.90023e-05
1.30639e-06
1.90539e-06
6.20078e-05
6.63486e-07
1.91066e-06
6.40375e-05
-1.68759e-10
1.91513e-06
6.50602e-05
-6.63685e-07
1.91514e-06
6.50602e-05
-1.30653e-06
1.91067e-06
6.40375e-05
-1.91122e-06
1.90534e-06
6.20078e-05
-2.46762e-06
1.91105e-06
5.90022e-05
1.95923e-06
5.50674e-05
-2.97291e-06
2.46818e-06
1.35042e-06
5.8313e-05
-2.96069e-06
1.90528e-06
1.30649e-06
6.20078e-05
1.29625e-06
1.29637e-06
6.48315e-05
6.56107e-07
1.29865e-06
6.67393e-05
-1.52787e-10
1.30207e-06
6.77008e-05
-6.56293e-07
1.30204e-06
6.77008e-05
-1.29646e-06
1.2986e-06
6.67393e-05
-1.90553e-06
1.29623e-06
6.48315e-05
-2.46839e-06
1.30636e-06
6.20077e-05
1.35027e-06
5.83129e-05
-2.96094e-06
2.47215e-06
6.88377e-07
6.05036e-05
-2.95228e-06
1.91055e-06
6.63601e-07
6.40375e-05
1.29853e-06
6.56229e-07
6.67393e-05
6.56392e-07
6.56518e-07
6.85652e-05
-1.78635e-10
6.58073e-07
6.94857e-05
-6.56613e-07
6.58029e-07
6.94857e-05
-1.29885e-06
6.56367e-07
6.85652e-05
-1.91085e-06
6.56061e-07
6.67393e-05
-2.47246e-06
6.63453e-07
6.40375e-05
6.88264e-07
6.05036e-05
-2.95257e-06
2.4746e-06
-7.12068e-11
6.16071e-05
-2.9486e-06
1.91501e-06
-4.54655e-11
6.50602e-05
1.30193e-06
-2.53972e-11
6.77008e-05
6.57941e-07
-4.46767e-11
6.94857e-05
-2.27285e-10
-8.32128e-11
7.03854e-05
-6.58287e-07
-3.38778e-11
7.03854e-05
-1.30231e-06
-5.1072e-11
6.94857e-05
-1.91536e-06
-7.38124e-11
6.77008e-05
-2.47496e-06
-6.75893e-11
6.50602e-05
-6.59366e-11
6.1607e-05
-2.94894e-06
2.47457e-06
-6.88357e-07
6.16071e-05
-2.94856e-06
1.915e-06
-6.63563e-07
6.50602e-05
1.3019e-06
-6.56168e-07
6.77008e-05
6.57897e-07
-6.56478e-07
6.94857e-05
-1.81151e-10
-6.58143e-07
7.03854e-05
-6.58316e-07
-6.58172e-07
7.03854e-05
-1.30236e-06
-6.56603e-07
6.94857e-05
-1.91539e-06
-6.5634e-07
6.77009e-05
-2.47502e-06
-6.63712e-07
6.50602e-05
-6.88482e-07
6.1607e-05
-2.94898e-06
2.47206e-06
-1.3503e-06
6.05036e-05
-2.95219e-06
1.91052e-06
-1.30641e-06
6.40375e-05
1.29846e-06
-1.29633e-06
6.67393e-05
6.56239e-07
-1.29873e-06
6.85652e-05
-2.02817e-10
-1.3022e-06
6.94857e-05
-6.56747e-07
-1.30224e-06
6.94857e-05
-1.29898e-06
-1.29886e-06
6.85653e-05
-1.91094e-06
-1.2966e-06
6.67393e-05
-2.47258e-06
-1.30671e-06
6.40375e-05
-1.35062e-06
6.05036e-05
-2.95267e-06
2.46799e-06
-1.95925e-06
5.8313e-05
-2.96058e-06
1.90518e-06
-1.91107e-06
6.20078e-05
1.29609e-06
-1.9054e-06
6.48315e-05
6.5592e-07
-1.91072e-06
6.67393e-05
-2.2279e-10
-1.91523e-06
6.77008e-05
-6.56475e-07
-1.91527e-06
6.77008e-05
-1.29672e-06
-1.91081e-06
6.67393e-05
-1.90567e-06
-1.90555e-06
6.48316e-05
-2.46858e-06
-1.91121e-06
6.20078e-05
-1.95945e-06
5.8313e-05
-2.96109e-06
2.46722e-06
-2.49515e-06
5.50675e-05
-2.97255e-06
1.91087e-06
-2.46743e-06
5.90022e-05
1.30622e-06
-2.46821e-06
6.20077e-05
6.63309e-07
-2.4723e-06
6.40375e-05
-2.13855e-10
-2.47481e-06
6.50602e-05
-6.63838e-07
-2.47486e-06
6.50602e-05
-1.30682e-06
-2.47243e-06
6.40375e-05
-1.91134e-06
-2.46844e-06
6.20078e-05
-2.46793e-06
-2.4678e-06
5.90023e-05
-2.49542e-06
5.50675e-05
-2.97311e-06
2.49497e-06
5.08151e-05
-2.97614e-06
-2.97598e-06
1.95907e-06
5.50674e-05
-2.97271e-06
1.35013e-06
5.83129e-05
-2.96075e-06
6.88142e-07
6.05036e-05
-2.95239e-06
-1.78681e-10
6.1607e-05
-2.94877e-06
-6.88583e-07
6.1607e-05
-2.94882e-06
-1.35071e-06
6.05036e-05
-2.95252e-06
-1.95955e-06
5.8313e-05
-2.96095e-06
-2.49552e-06
5.50675e-05
-2.97298e-06
5.08151e-05
-2.97658e-06
-2.97647e-06
2.58131e-06
2.58138e-06
5.18114e-05
-3.07943e-06
-3.07951e-06
2.02642e-06
2.55096e-06
5.61454e-05
-3.07396e-06
1.3967e-06
2.55169e-06
5.9453e-05
-3.06184e-06
7.11927e-07
2.55616e-06
6.16855e-05
-3.05347e-06
-1.61103e-10
2.55898e-06
6.28101e-05
-3.04986e-06
-7.12043e-07
2.55895e-06
6.28101e-05
-3.04983e-06
-1.39669e-06
2.55609e-06
6.16855e-05
-3.05341e-06
-2.02664e-06
2.55156e-06
5.9453e-05
-3.06178e-06
-2.5815e-06
2.55078e-06
5.61453e-05
-3.07385e-06
2.58133e-06
5.18113e-05
-3.07958e-06
-3.07943e-06
2.55086e-06
2.02647e-06
5.61454e-05
-3.07386e-06
1.97497e-06
1.97505e-06
6.01538e-05
1.34998e-06
1.96903e-06
6.32155e-05
6.85592e-07
1.97476e-06
6.52833e-05
-1.59213e-10
1.97965e-06
6.63251e-05
-6.85742e-07
1.97966e-06
6.63251e-05
-1.35007e-06
1.97476e-06
6.52832e-05
-1.97523e-06
1.96896e-06
6.32155e-05
-2.55097e-06
1.97504e-06
6.01537e-05
2.02646e-06
5.61453e-05
-3.07401e-06
2.55158e-06
1.39673e-06
5.9453e-05
-3.06171e-06
1.96894e-06
1.35005e-06
6.32155e-05
1.33919e-06
1.33927e-06
6.6091e-05
6.77736e-07
1.34178e-06
6.80338e-05
-1.39296e-10
1.34549e-06
6.90129e-05
-6.77871e-07
1.34546e-06
6.90129e-05
-1.33936e-06
1.34171e-06
6.80338e-05
-1.96917e-06
1.3391e-06
6.6091e-05
-2.55178e-06
1.34987e-06
6.32155e-05
1.39653e-06
5.94529e-05
-3.06196e-06
2.55603e-06
7.1197e-07
6.16855e-05
-3.05333e-06
1.97467e-06
6.85667e-07
6.52833e-05
1.34168e-06
6.77821e-07
6.80338e-05
6.78071e-07
6.78159e-07
6.98926e-05
-1.72964e-10
6.79848e-07
7.08295e-05
-6.78253e-07
6.79791e-07
7.08295e-05
-1.342e-06
6.77968e-07
6.98925e-05
-1.97498e-06
6.77604e-07
6.80338e-05
-2.55635e-06
6.85475e-07
6.52832e-05
7.11818e-07
6.16855e-05
-3.05364e-06
2.55884e-06
-1.06607e-10
6.28101e-05
-3.0497e-06
1.97954e-06
-7.68678e-11
6.63251e-05
1.34539e-06
-5.34682e-11
6.90129e-05
6.79752e-07
-7.89687e-11
7.08295e-05
-2.36509e-10
-1.28444e-10
7.17453e-05
-6.80095e-07
-6.94339e-11
7.17453e-05
-1.34578e-06
-9.21862e-11
7.08295e-05
-1.97992e-06
-1.20805e-10
6.90129e-05
-2.55923e-06
-1.12193e-10
6.63251e-05
-1.09665e-10
6.281e-05
-3.05009e-06
2.55879e-06
-7.11983e-07
6.28101e-05
-3.04966e-06
1.97953e-06
-6.85661e-07
6.63251e-05
1.34534e-06
-6.77788e-07
6.90129e-05
6.79694e-07
-6.78156e-07
7.08295e-05
-1.83954e-10
-6.79983e-07
7.17453e-05
-6.80136e-07
-6.80022e-07
7.17453e-05
-1.34584e-06
-6.78314e-07
7.08295e-05
-1.97996e-06
-6.78005e-07
6.90129e-05
-2.55931e-06
-6.8585e-07
6.63251e-05
-7.12141e-07
6.281e-05
-3.05013e-06
2.55591e-06
-1.39662e-06
6.16855e-05
-3.05322e-06
1.97462e-06
-1.34999e-06
6.52832e-05
1.34159e-06
-1.33927e-06
6.80338e-05
6.77872e-07
-1.34191e-06
6.98925e-05
-2.15686e-10
-1.3457e-06
7.08295e-05
-6.78432e-07
-1.34576e-06
7.08295e-05
-1.34218e-06
-1.34208e-06
6.98926e-05
-1.9751e-06
-1.3396e-06
6.80338e-05
-2.55651e-06
-1.35036e-06
6.52833e-05
-1.39701e-06
6.16855e-05
-3.05377e-06
2.55134e-06
-2.02654e-06
5.9453e-05
-3.06156e-06
1.9688e-06
-1.97512e-06
6.32155e-05
1.33897e-06
-1.96907e-06
6.6091e-05
6.77489e-07
-1.97486e-06
6.80338e-05
-2.44702e-10
-1.97981e-06
6.90129e-05
-6.78117e-07
-1.97985e-06
6.90129e-05
-1.3397e-06
-1.97498e-06
6.80338e-05
-1.96937e-06
-1.96925e-06
6.60911e-05
-2.55204e-06
-1.97529e-06
6.32156e-05
-2.02677e-06
5.9453e-05
-3.06217e-06
2.55055e-06
-2.58134e-06
5.61453e-05
-3.07362e-06
1.97487e-06
-2.55079e-06
6.01537e-05
1.34975e-06
-2.55161e-06
6.32155e-05
6.85353e-07
-2.55621e-06
6.52832e-05
-2.37891e-10
-2.55909e-06
6.63251e-05
-6.85956e-07
-2.55915e-06
6.63251e-05
-1.35046e-06
-2.55636e-06
6.52833e-05
-1.9754e-06
-2.5519e-06
6.32156e-05
-2.55138e-06
-2.55125e-06
6.01538e-05
-2.58166e-06
5.61454e-05
-3.07428e-06
2.58112e-06
5.18113e-05
-3.07937e-06
-3.07918e-06
2.02631e-06
5.61453e-05
-3.07382e-06
1.39641e-06
5.94529e-05
-3.06178e-06
7.1172e-07
6.16855e-05
-3.05346e-06
-1.98964e-10
6.281e-05
-3.04992e-06
-7.12222e-07
6.281e-05
-3.04997e-06
-1.39709e-06
6.16855e-05
-3.05361e-06
-2.02686e-06
5.9453e-05
-3.06201e-06
-2.58176e-06
5.61454e-05
-3.07415e-06
5.18114e-05
-3.07988e-06
-3.07976e-06
2.59068e-06
2.59071e-06
5.28123e-05
-3.09106e-06
-3.0911e-06
2.03339e-06
2.55819e-06
5.7228e-05
-3.08338e-06
1.40148e-06
2.5587e-06
6.05977e-05
-3.07127e-06
7.14389e-07
2.56334e-06
6.28721e-05
-3.063e-06
-1.22466e-10
2.56634e-06
6.40177e-05
-3.05946e-06
-7.14398e-07
2.56631e-06
6.40177e-05
-3.05942e-06
-1.40136e-06
2.56326e-06
6.28721e-05
-3.06292e-06
-2.03353e-06
2.55853e-06
6.05976e-05
-3.07119e-06
-2.59081e-06
2.55796e-06
5.72278e-05
-3.08324e-06
2.59062e-06
5.28121e-05
-3.09115e-06
-3.09099e-06
2.55813e-06
2.03338e-06
5.7228e-05
-3.08331e-06
1.98006e-06
1.98008e-06
6.13096e-05
1.35329e-06
1.9737e-06
6.44274e-05
6.87253e-07
1.97959e-06
6.6533e-05
-1.1931e-10
1.98466e-06
6.75939e-05
-6.87298e-07
1.98467e-06
6.75939e-05
-1.35328e-06
1.97958e-06
6.6533e-05
-1.98025e-06
1.97361e-06
6.44274e-05
-2.55817e-06
1.98006e-06
6.13095e-05
2.03336e-06
5.72278e-05
-3.08341e-06
2.55862e-06
1.40145e-06
6.05977e-05
-3.07117e-06
1.97366e-06
1.35329e-06
6.44274e-05
1.34205e-06
1.34206e-06
6.73543e-05
6.79095e-07
1.34461e-06
6.93317e-05
-9.55262e-11
1.34846e-06
7.03283e-05
-6.79121e-07
1.34843e-06
7.03283e-05
-1.34212e-06
1.34453e-06
6.93317e-05
-1.97382e-06
1.34185e-06
6.73543e-05
-2.55877e-06
1.35308e-06
6.44274e-05
1.40121e-06
6.05976e-05
-3.07138e-06
2.56324e-06
7.14353e-07
6.28721e-05
-3.06288e-06
1.97954e-06
6.87252e-07
6.6533e-05
1.34458e-06
6.79103e-07
6.93317e-05
6.79419e-07
6.7943e-07
7.1223e-05
-1.36768e-10
6.81174e-07
7.21763e-05
-6.79504e-07
6.81107e-07