/*--------------------------------*- C++ -*----------------------------------*\
| =========                 |                                                 |
| \\      /  F ield         | OpenFOAM: The Open Source CFD Toolbox           |
|  \\    /   O peration     | Version:  2412                                  |
|   \\  /    A nd           | Website:  www.openfoam.com                      |
|    \\/     M anipulation  |                                                 |
\*---------------------------------------------------------------------------*/
FoamFile
{
    version     2.0;
    format      ascii;
    arch        "LSB;label=32;scalar=64";
    class       volVectorField;
    location    "0.3";
    object      U;
}
// * * * * * * * * * * * * * * * * * * * * * * * * * * * * * * * * * * * * * //

dimensions      [0 1 -1 0 0 0 0];

internalField   nonuniform List<vector> 
15000
(
(0.00040396 0.000404007 1.00036)
(0.000310522 0.000431376 1.00036)
(0.000222886 0.00045301 1.00036)
(0.000134488 0.000467178 1.00036)
(4.49323e-05 0.000474108 1.00036)
(-4.50026e-05 0.000474104 1.00036)
(-0.000134549 0.000467166 1.00036)
(-0.000222942 0.000452991 1.00036)
(-0.000310573 0.000431349 1.00036)
(-0.000404004 0.000403988 1.00036)
(0.000431331 0.000310573 1.00036)
(0.000326303 0.000326352 1.00036)
(0.00023265 0.000343924 1.00036)
(0.000139683 0.000356397 1.00036)
(4.65619e-05 0.00036268 1.00036)
(-4.66343e-05 0.000362676 1.00036)
(-0.000139749 0.000356385 1.00036)
(-0.000232712 0.000343904 1.00036)
(-0.000326355 0.000326328 1.00036)
(-0.000431371 0.00031055 1.00036)
(0.000452967 0.000222939 1.00036)
(0.000343877 0.000232704 1.00036)
(0.000244517 0.00024457 1.00036)
(0.000146332 0.000253702 1.00036)
(4.86818e-05 0.000258499 1.00036)
(-4.87594e-05 0.000258495 1.00036)
(-0.000146402 0.00025369 1.00036)
(-0.00024458 0.00024455 1.00036)
(-0.000343932 0.000232682 1.00036)
(-0.000453013 0.000222914 1.00036)
(0.000467139 0.000134543 1.00036)
(0.000356352 0.000139741 1.00036)
(0.00025365 0.000146392 1.00036)
(0.000151716 0.000151777 1.00036)
(5.04405e-05 0.000154699 1.00036)
(-5.0525e-05 0.000154695 1.00036)
(-0.000151796 0.000151764 1.00036)
(-0.000253721 0.000146371 1.00036)
(-0.000356411 0.000139718 1.00036)
(-0.000467188 0.00013452 1.00036)
(0.000474073 4.49893e-05 1.00036)
(0.00036264 4.66244e-05 1.00036)
(0.000258449 4.87466e-05 1.00036)
(0.000154639 5.05067e-05 1.00036)
(5.14084e-05 5.14752e-05 1.00036)
(-5.15039e-05 5.14708e-05 1.00036)
(-0.000154727 5.04926e-05 1.00036)
(-0.000258526 4.87275e-05 1.00036)
(-0.000362703 4.66018e-05 1.00036)
(-0.000474126 4.49705e-05 1.00036)
(0.000474073 -4.49454e-05 1.00036)
(0.000362639 -4.65712e-05 1.00036)
(0.000258447 -4.86947e-05 1.00036)
(0.000154635 -5.04594e-05 1.00036)
(5.14043e-05 -5.14377e-05 1.00036)
(-5.1508e-05 -5.14419e-05 1.00036)
(-0.000154732 -5.04739e-05 1.00036)
(-0.000258532 -4.87173e-05 1.00036)
(-0.000362709 -4.6599e-05 1.00036)
(-0.00047413 -4.49688e-05 1.00036)
(0.000467137 -0.000134494 1.00036)
(0.000356349 -0.00013969 1.00036)
(0.000253642 -0.000146344 1.00036)
(0.000151704 -0.000151739 1.00036)
(5.04263e-05 -0.00015467 1.00036)
(-5.054e-05 -0.000154675 1.00036)
(-0.000151812 -0.000151754 1.00036)
(-0.000253738 -0.000146373 1.00036)
(-0.000356428 -0.000139725 1.00036)
(-0.000467201 -0.000134529 1.00036)
(0.00045296 -0.000222892 1.00036)
(0.000343866 -0.000232663 1.00036)
(0.000244499 -0.000244536 1.00036)
(0.000146311 -0.000253678 1.00036)
(4.86614e-05 -0.000258483 1.00036)
(-4.8782e-05 -0.000258488 1.00036)
(-0.000146431 -0.000253691 1.00036)
(-0.000244609 -0.000244561 1.00036)
(-0.000343956 -0.000232695 1.00036)
(-0.000453035 -0.000222931 1.00036)
(0.000431311 -0.00031053 1.00036)
(0.000326282 -0.000326318 1.00036)
(0.000232628 -0.000343901 1.00036)
(0.000139658 -0.000356382 1.00036)
(4.65379e-05 -0.000362672 1.00036)
(-4.66607e-05 -0.000362674 1.00036)
(-0.000139781 -0.000356388 1.00036)
(-0.000232744 -0.000343914 1.00036)
(-0.000326388 -0.000326343 1.00036)
(-0.000431403 -0.000310561 1.00036)
(0.000403936 -0.00040397 1.00036)
(0.000310496 -0.000431344 1.00036)
(0.000222862 -0.00045299 1.00036)
(0.000134465 -0.000467165 1.00036)
(4.49149e-05 -0.0004741 1.00036)
(-4.50227e-05 -0.0004741 1.00036)
(-0.000134579 -0.000467166 1.00036)
(-0.000222978 -0.000452997 1.00036)
(-0.000310607 -0.000431361 1.00036)
(-0.000404035 -0.000403991 1.00036)
(0.00110441 0.00110449 1.00576)
(0.000859128 0.00118296 1.00577)
(0.000615958 0.00124428 1.00577)
(0.000371246 0.0012852 1.00577)
(0.00012403 0.00130547 1.00577)
(-0.000124152 0.00130546 1.00577)
(-0.000371355 0.00128517 1.00577)
(-0.000616063 0.00124424 1.00577)
(-0.00085923 0.0011829 1.00577)
(-0.00110451 0.00110444 1.00576)
(0.00118288 0.00085921 1.00577)
(0.000903606 0.000903686 1.00578)
(0.000643856 0.000952407 1.00578)
(0.000386116 0.000987669 1.00579)
(0.000128691 0.00100567 1.00579)
(-0.000128817 0.00100566 1.00579)
(-0.000386234 0.00098764 1.00579)
(-0.000643971 0.000952364 1.00578)
(-0.000903711 0.000903636 1.00578)
(-0.00118297 0.00085916 1.00577)
(0.00124421 0.000616041 1.00577)
(0.000952329 0.00064394 1.00578)
(0.000676557 0.000676641 1.00579)
(0.000404425 0.000702295 1.00579)
(0.000134525 0.00071594 1.0058)
(-0.000134662 0.00071593 1.0058)
(-0.000404552 0.000702267 1.00579)
(-0.000676677 0.000676595 1.00579)
(-0.000952442 0.000643894 1.00578)
(-0.00124431 0.000615992 1.00577)
(0.00128513 0.000371333 1.00577)
(0.000987595 0.000386207 1.00579)
(0.000702212 0.000404517 1.00579)
(0.000419551 0.000419644 1.0058)
(0.000139467 0.000427953 1.0058)
(-0.00013962 0.000427943 1.0058)
(-0.000419699 0.000419614 1.0058)
(-0.000702351 0.00040447 1.00579)
(-0.000987719 0.000386157 1.00579)
(-0.00128524 0.000371285 1.00577)
(0.0013054 0.000124119 1.00577)
(0.0010056 0.000128787 1.00579)
(0.00071586 0.000134624 1.0058)
(0.000427861 0.000139568 1.0058)
(0.000142222 0.000142323 1.00581)
(-0.000142399 0.000142313 1.00581)
(-0.000428028 0.000139537 1.0058)
(-0.000716013 0.000134582 1.0058)
(-0.00100574 0.000128739 1.00579)
(-0.00130553 0.000124079 1.00577)
(0.0013054 -0.000124062 1.00577)
(0.0010056 -0.000128719 1.00579)
(0.000715852 -0.000134562 1.0058)
(0.000427851 -0.000139519 1.0058)
(0.000142212 -0.000142297 1.00581)
(-0.000142408 -0.000142306 1.00581)
(-0.000428039 -0.00013955 1.0058)
(-0.000716026 -0.000134609 1.0058)
(-0.00100575 -0.000128775 1.00579)
(-0.00130554 -0.00012411 1.00577)
(0.00128511 -0.000371267 1.00577)
(0.000987578 -0.00038614 1.00579)
(0.00070219 -0.000404459 1.00579)
(0.000419523 -0.000419607 1.0058)
(0.000139436 -0.000427938 1.0058)
(-0.000139651 -0.000427948 1.0058)
(-0.000419732 -0.000419641 1.0058)
(-0.000702386 -0.000404518 1.00579)
(-0.000987752 -0.000386209 1.00579)
(-0.00128527 -0.000371334 1.00577)
(0.00124419 -0.000615979 1.00577)
(0.000952297 -0.000643887 1.00578)
(0.000676514 -0.000676599 1.00579)
(0.000404377 -0.000702276 1.00579)
(0.000134481 -0.000715941 1.0058)
(-0.000134709 -0.000715951 1.0058)
(-0.000404608 -0.000702309 1.00579)
(-0.000676734 -0.000676655 1.00579)
(-0.000952491 -0.000643955 1.00578)
(-0.00124436 -0.000616055 1.00577)
(0.00118283 -0.000859152 1.00577)
(0.000903558 -0.000903641 1.00578)
(0.000643806 -0.00095238 1.00578)
(0.000386062 -0.000987661 1.00579)
(0.000128639 -0.00100568 1.00579)
(-0.000128872 -0.00100569 1.00579)
(-0.000386297 -0.000987683 1.00579)
(-0.000644034 -0.000952419 1.00578)
(-0.000903775 -0.000903701 1.00578)
(-0.00118303 -0.000859217 1.00577)
(0.00110437 -0.00110444 1.00576)
(0.000859075 -0.00118291 1.00577)
(0.000615905 -0.00124426 1.00577)
(0.000371194 -0.00128519 1.00577)
(0.000123987 -0.00130547 1.00577)
(-0.000124198 -0.00130548 1.00577)
(-0.000371417 -0.0012852 1.00577)
(-0.000616132 -0.00124429 1.00577)
(-0.000859292 -0.00118296 1.00577)
(-0.00110457 -0.00110449 1.00576)
(0.00173998 0.00174009 1.01724)
(0.00135268 0.00186643 1.01724)
(0.000968311 0.00196373 1.01724)
(0.000583259 0.00202849 1.01725)
(0.000194823 0.00206058 1.01725)
(-0.000194998 0.00206057 1.01725)
(-0.000583414 0.00202846 1.01725)
(-0.000968466 0.00196367 1.01724)
(-0.00135283 0.00186635 1.01724)
(-0.00174014 0.00174003 1.01724)
(0.00186632 0.00135278 1.01724)
(0.0014264 0.0014265 1.01725)
(0.00101467 0.00150371 1.01726)
(0.00060807 0.00155922 1.01726)
(0.000202625 0.0015875 1.01726)
(-0.000202804 0.00158749 1.01726)
(-0.000608237 0.00155918 1.01726)
(-0.00101484 0.00150366 1.01726)
(-0.00142655 0.00142644 1.01725)
(-0.00186646 0.00135272 1.01724)
(0.00196363 0.000968421 1.01724)
(0.00150361 0.00101478 1.01726)
(0.0010664 0.00106651 1.01727)
(0.000637074 0.00110674 1.01727)
(0.000211882 0.00112807 1.01728)
(-0.000212075 0.00112805 1.01728)
(-0.000637253 0.0011067 1.01727)
(-0.00106657 0.00106645 1.01727)
(-0.00150378 0.00101472 1.01726)
(-0.00196378 0.00096836 1.01724)
(0.0020284 0.000583374 1.01725)
(0.00155911 0.00060819 1.01726)
(0.00110662 0.000637197 1.01727)
(0.000660792 0.000660916 1.01728)
(0.000219638 0.000673891 1.01728)
(-0.000219852 0.000673876 1.01728)
(-0.000661001 0.000660874 1.01728)
(-0.00110682 0.000637132 1.01727)
(-0.0015593 0.000608124 1.01726)
(-0.00202857 0.000583312 1.01725)
(0.00206049 0.000194945 1.01725)
(0.00158741 0.000202754 1.01726)
(0.00112796 0.000212015 1.01728)
(0.000673767 0.000219772 1.01728)
(0.00022394 0.000224075 1.01729)
(-0.000224189 0.000224062 1.01729)
(-0.000674004 0.00021973 1.01728)
(-0.00112818 0.000211959 1.01728)
(-0.00158761 0.000202691 1.01726)
(-0.00206068 0.000194893 1.01725)
(0.00206049 -0.000194873 1.01725)
(0.0015874 -0.000202669 1.01726)
(0.00112794 -0.000211939 1.01728)
(0.000673752 -0.000219715 1.01728)
(0.000223926 -0.000224051 1.01729)
(-0.0002242 -0.000224063 1.01729)
(-0.000674018 -0.000219757 1.01728)
(-0.00112819 -0.000212002 1.01728)
(-0.00158762 -0.000202743 1.01726)
(-0.00206069 -0.000194933 1.01725)
(0.00202837 -0.00058329 1.01725)
(0.00155908 -0.000608104 1.01726)
(0.00110659 -0.000637121 1.01727)
(0.000660749 -0.000660872 1.01728)
(0.000219594 -0.000673877 1.01728)
(-0.000219895 -0.000673891 1.01728)
(-0.000661045 -0.000660918 1.01728)
(-0.00110687 -0.000637203 1.01727)
(-0.00155934 -0.000608198 1.01726)
(-0.0020286 -0.000583377 1.01725)
(0.00196359 -0.000968343 1.01724)
(0.00150356 -0.00101471 1.01726)
(0.00106633 -0.00106646 1.01727)
(0.000637004 -0.00110671 1.01727)
(0.000211821 -0.00112807 1.01728)
(-0.000212138 -0.00112809 1.01728)
(-0.000637328 -0.00110676 1.01727)
(-0.00106665 -0.00106654 1.01727)
(-0.00150384 -0.00101481 1.01726)
(-0.00196384 -0.000968443 1.01724)
(0.00186625 -0.00135271 1.01724)
(0.00142633 -0.00142644 1.01725)
(0.0010146 -0.00150367 1.01726)
(0.000607993 -0.0015592 1.01726)
(0.000202555 -0.00158751 1.01726)
(-0.000202875 -0.00158753 1.01726)
(-0.00060832 -0.00155924 1.01726)
(-0.00101492 -0.00150374 1.01726)
(-0.00142663 -0.00142653 1.01725)
(-0.00186654 -0.0013528 1.01724)
(0.00173992 -0.00174003 1.01724)
(0.0013526 -0.00186636 1.01724)
(0.000968237 -0.00196369 1.01724)
(0.000583186 -0.00202848 1.01725)
(0.000194766 -0.00206059 1.01725)
(-0.000195057 -0.0020606 1.01725)
(-0.000583493 -0.0020285 1.01725)
(-0.000968552 -0.00196374 1.01724)
(-0.0013529 -0.00186643 1.01724)
(-0.0017402 -0.0017401 1.01724)
(0.00216098 0.00216111 1.03261)
(0.00168181 0.00231867 1.0326)
(0.00120343 0.00243989 1.0326)
(0.00072467 0.00252073 1.0326)
(0.000242029 0.00256084 1.03259)
(-0.000242255 0.00256083 1.03259)
(-0.000724871 0.00252069 1.03259)
(-0.00120363 0.00243982 1.0326)
(-0.00168202 0.00231858 1.0326)
(-0.00216118 0.00216105 1.03261)
(0.00231854 0.00168195 1.0326)
(0.00177298 0.00177312 1.03259)
(0.00126061 0.00186882 1.03259)
(0.000755164 0.0019378 1.03258)
(0.000251596 0.00197302 1.03258)
(-0.000251828 0.001973 1.03258)
(-0.000755381 0.00193775 1.03258)
(-0.00126083 0.00186874 1.03259)
(-0.00177319 0.00177304 1.03259)
(-0.00231872 0.00168187 1.0326)
(0.00243975 0.00120357 1.0326)
(0.00186868 0.00126076 1.03259)
(0.00132454 0.00132469 1.03258)
(0.000790935 0.00137459 1.03257)
(0.000262998 0.00140109 1.03257)
(-0.000263249 0.00140107 1.03257)
(-0.000791167 0.00137454 1.03257)
(-0.00132477 0.00132461 1.03258)
(-0.0018689 0.00126068 1.03259)
(-0.00243996 0.00120349 1.0326)
(0.0025206 0.000724818 1.03259)
(0.00193766 0.000755318 1.03258)
(0.00137444 0.000791094 1.03257)
(0.000820323 0.000820483 1.03257)
(0.0002726 0.000836593 1.03257)
(-0.000272881 0.000836573 1.03257)
(-0.000820598 0.000820426 1.03257)
(-0.00137471 0.000791006 1.03257)
(-0.00193791 0.000755228 1.03258)
(-0.00252083 0.000724733 1.03259)
(0.00256071 0.000242186 1.03259)
(0.00197288 0.000251762 1.03258)
(0.00140095 0.000263168 1.03257)
(0.000836432 0.000272772 1.03257)
(0.000277937 0.00027811 1.03257)
(-0.000278265 0.000278092 1.03257)
(-0.000836747 0.000272714 1.03257)
(-0.00140124 0.000263092 1.03257)
(-0.00197316 0.000251677 1.03258)
(-0.00256097 0.000242117 1.03259)
(0.0025607 -0.000242094 1.03259)
(0.00197286 -0.000251657 1.03258)
(0.00140093 -0.000263075 1.03257)
(0.000836411 -0.000272706 1.03257)
(0.000277919 -0.000278089 1.03257)
(-0.000278281 -0.000278106 1.03257)
(-0.000836765 -0.000272762 1.03257)
(-0.00140127 -0.000263159 1.03257)
(-0.00197318 -0.000251753 1.03258)
(-0.00256098 -0.000242173 1.03259)
(0.00252056 -0.000724709 1.03259)
(0.00193762 -0.000755209 1.03258)
(0.00137439 -0.000790998 1.03257)
(0.000820262 -0.000820431 1.03257)
(0.000272539 -0.000836582 1.03257)
(-0.000272938 -0.000836602 1.03257)
(-0.000820656 -0.000820493 1.03257)
(-0.00137477 -0.000791108 1.03257)
(-0.00193797 -0.000755332 1.03258)
(-0.00252088 -0.000724823 1.03259)
(0.00243968 -0.00120347 1.0326)
(0.0018686 -0.00126067 1.03259)
(0.00132445 -0.00132461 1.03258)
(0.000790836 -0.00137455 1.03257)
(0.000262915 -0.0014011 1.03257)
(-0.000263333 -0.00140112 1.03257)
(-0.000791269 -0.00137462 1.03257)
(-0.00132487 -0.00132472 1.03258)
(-0.00186899 -0.00126079 1.03259)
(-0.00244004 -0.0012036 1.0326)
(0.00231843 -0.00168186 1.0326)
(0.00177288 -0.00177304 1.03259)
(0.00126051 -0.00186875 1.03259)
(0.000755057 -0.00193777 1.03258)
(0.000251501 -0.00197302 1.03258)
(-0.000251924 -0.00197304 1.03258)
(-0.00075549 -0.00193783 1.03258)
(-0.00126094 -0.00186884 1.03259)
(-0.0017733 -0.00177316 1.03259)
(-0.00231883 -0.00168197 1.0326)
(0.00216089 -0.00216103 1.03261)
(0.00168171 -0.00231858 1.0326)
(0.00120332 -0.00243982 1.0326)
(0.000724567 -0.0025207 1.03259)
(0.00024195 -0.00256084 1.03259)
(-0.000242335 -0.00256085 1.03259)
(-0.000724975 -0.00252074 1.03259)
(-0.00120374 -0.00243989 1.0326)
(-0.00168211 -0.00231868 1.0326)
(-0.00216127 -0.00216113 1.03261)
(0.00244922 0.00244937 1.05069)
(0.00190778 0.00262809 1.05067)
(0.0013649 0.00276587 1.05065)
(0.00082176 0.00285796 1.05064)
(0.000274435 0.0029037 1.05063)
(-0.000274695 0.00290368 1.05063)
(-0.000821986 0.0028579 1.05064)
(-0.00136513 0.00276577 1.05065)
(-0.00190802 0.00262796 1.05067)
(-0.00244947 0.00244929 1.05069)
(0.00262793 0.00190793 1.05067)
(0.00201014 0.00201029 1.05062)
(0.00142894 0.00211873 1.05059)
(0.000855774 0.00219719 1.05058)
(0.000285079 0.0022373 1.05057)
(-0.000285351 0.00223728 1.05057)
(-0.000856024 0.00219711 1.05058)
(-0.00142919 0.00211862 1.05059)
(-0.00201038 0.00201018 1.05062)
(-0.00262815 0.00190783 1.05067)
(0.0027657 0.00136505 1.05065)
(0.00211856 0.0014291 1.05059)
(0.00150122 0.00150139 1.05056)
(0.000896136 0.00155808 1.05053)
(0.000297924 0.00158827 1.05052)
(-0.000298221 0.00158824 1.05052)
(-0.000896407 0.00155801 1.05053)
(-0.00150149 0.00150127 1.05056)
(-0.00211883 0.00142899 1.05059)
(-0.00276596 0.00136494 1.05065)
(0.0028578 0.000821923 1.05064)
(0.00219702 0.000855945 1.05058)
(0.00155792 0.000896312 1.05053)
(0.000929488 0.000929667 1.05051)
(0.000308811 0.000948001 1.05049)
(-0.00030915 0.000947974 1.05049)
(-0.000929821 0.000929589 1.05051)
(-0.00155824 0.00089619 1.05053)
(-0.00219733 0.000855819 1.05058)
(-0.00285809 0.000821802 1.05064)
(0.00290354 0.000274609 1.05063)
(0.00223714 0.000285265 1.05057)
(0.0015881 0.000298113 1.05052)
(0.000947819 0.000309003 1.05049)
(0.000314878 0.000315072 1.05048)
(-0.000315283 0.000315047 1.05048)
(-0.000948209 0.000308925 1.05049)
(-0.00158847 0.000298009 1.05052)
(-0.0022375 0.000285148 1.05057)
(-0.00290388 0.000274512 1.05063)
(0.00290352 -0.000274515 1.05063)
(0.00223711 -0.000285158 1.05057)
(0.00158807 -0.000298026 1.05052)
(0.000947789 -0.000308953 1.05049)
(0.000314851 -0.000315084 1.05048)
(-0.000315306 -0.000315107 1.05048)
(-0.000948235 -0.00030903 1.05049)
(-0.0015885 -0.000298138 1.05052)
(-0.00223753 -0.000285288 1.05057)
(-0.0029039 -0.000274622 1.05063)
(0.00285774 -0.000821806 1.05064)
(0.00219695 -0.000855832 1.05058)
(0.00155784 -0.000896216 1.05053)
(0.000929402 -0.000929632 1.05051)
(0.000308726 -0.000948022 1.05049)
(-0.000309231 -0.000948049 1.05049)
(-0.000929904 -0.000929716 1.05051)
(-0.00155833 -0.000896363 1.05053)
(-0.00219741 -0.000855993 1.05058)
(-0.00285816 -0.000821957 1.05064)
(0.00276561 -0.00136495 1.05065)
(0.00211844 -0.00142901 1.05059)
(0.00150109 -0.00150131 1.05056)
(0.000895995 -0.00155807 1.05053)
(0.000297807 -0.0015883 1.05052)
(-0.000298339 -0.00158833 1.05052)
(-0.00089655 -0.00155816 1.05053)
(-0.00150164 -0.00150146 1.05056)
(-0.00211895 -0.00142917 1.05059)
(-0.00276607 -0.00136512 1.05065)
(0.00262778 -0.00190784 1.05067)
(0.00200999 -0.0020102 1.05062)
(0.00142879 -0.00211866 1.05059)
(0.000855622 -0.00219716 1.05057)
(0.000284945 -0.00223733 1.05057)
(-0.000285484 -0.00223736 1.05057)
(-0.000856177 -0.00219724 1.05058)
(-0.00142934 -0.00211878 1.05059)
(-0.00201054 -0.00201037 1.05062)
(-0.0026283 -0.00190799 1.05067)
(0.0024491 -0.0024493 1.05069)
(0.00190764 -0.00262798 1.05067)
(0.00136475 -0.00276579 1.05065)
(0.000821611 -0.00285793 1.05064)
(0.000274319 -0.00290371 1.05063)
(-0.00027481 -0.00290373 1.05063)
(-0.000822134 -0.00285799 1.05064)
(-0.00136529 -0.0027659 1.05065)
(-0.00190815 -0.00262812 1.05067)
(-0.00244959 -0.00244942 1.05069)
(0.0026321 0.00263226 1.07062)
(0.00205247 0.00282398 1.07057)
(0.00146842 0.00297246 1.07053)
(0.000883963 0.00307201 1.07051)
(0.000295192 0.00312152 1.07049)
(-0.000295469 0.00312149 1.07049)
(-0.000884195 0.00307193 1.07051)
(-0.00146866 0.00297234 1.07053)
(-0.00205273 0.00282381 1.07057)
(-0.00263239 0.00263215 1.07062)
(0.00282382 0.00205262 1.07057)
(0.00216055 0.00216071 1.07048)
(0.00153583 0.00227715 1.07042)
(0.000919586 0.00236187 1.07038)
(0.000306303 0.00240529 1.07036)
(-0.000306595 0.00240525 1.07036)
(-0.000919849 0.00236177 1.07038)
(-0.0015361 0.00227701 1.07042)
(-0.00216082 0.00216056 1.07048)
(-0.00282405 0.00205249 1.07057)
(0.00297229 0.00146856 1.07053)
(0.00227698 0.00153598 1.07042)
(0.00161329 0.00161346 1.07034)
(0.000962727 0.00167464 1.07029)
(0.000320004 0.0017073 1.07027)
(-0.00032033 0.00170727 1.07027)
(-0.000963021 0.00167454 1.07029)
(-0.00161358 0.0016133 1.07034)
(-0.00227728 0.00153583 1.07042)
(-0.00297258 0.00146841 1.07053)
(0.00307183 0.000884122 1.07051)
(0.0023617 0.000919755 1.07038)
(0.00167447 0.000962903 1.07029)
(0.000998673 0.000998854 1.07023)
(0.000331724 0.00101869 1.07021)
(-0.000332108 0.00101865 1.07021)
(-0.000999052 0.000998749 1.07023)
(-0.00167484 0.000962739 1.07029)
(-0.00236205 0.000919585 1.07038)
(-0.00307218 0.000883957 1.07051)
(0.00312134 0.000295365 1.07049)
(0.00240511 0.000306489 1.07036)
(0.00170713 0.000320194 1.07027)
(0.0010185 0.000331918 1.07021)
(0.000338277 0.000338475 1.07018)
(-0.000338752 0.000338443 1.07018)
(-0.00101896 0.000331814 1.07021)
(-0.00170757 0.000320055 1.07027)
(-0.00240554 0.000306332 1.07036)
(-0.00312175 0.000295232 1.07049)
(0.00312132 -0.000295289 1.07049)
(0.00240508 -0.000306401 1.07036)
(0.00170709 -0.000320133 1.07027)
(0.00101846 -0.000331908 1.07021)
(0.000338241 -0.000338548 1.07018)
(-0.000338783 -0.000338577 1.07018)
(-0.001019 -0.000332008 1.07021)
(-0.00170762 -0.000320281 1.07027)
(-0.00240558 -0.000306571 1.07036)
(-0.00312178 -0.000295432 1.07049)
(0.00307175 -0.000884018 1.07051)
(0.00236159 -0.000919657 1.07038)
(0.00167436 -0.000962829 1.07029)
(0.000998556 -0.00099886 1.07023)
(0.000331608 -0.00101877 1.07021)
(-0.000332219 -0.0010188 1.07021)
(-0.000999166 -0.000998969 1.07023)
(-0.00167496 -0.00096302 1.07029)
(-0.00236217 -0.000919866 1.07038)
(-0.00307228 -0.000884213 1.07051)
(0.00297215 -0.00146848 1.07053)
(0.00227682 -0.00153591 1.07042)
(0.00161311 -0.0016134 1.07034)
(0.000962537 -0.00167466 1.07029)
(0.000319843 -0.0017074 1.07027)
(-0.000320492 -0.00170744 1.07027)
(-0.000963218 -0.00167478 1.07029)
(-0.00161379 -0.0016136 1.07034)
(-0.00227746 -0.00153612 1.07042)
(-0.00297274 -0.0014687 1.07053)
(0.00282361 -0.00205255 1.07057)
(0.00216035 -0.00216063 1.07048)
(0.00153563 -0.00227711 1.07042)
(0.000919378 -0.00236188 1.07038)
(0.000306119 -0.00240537 1.07036)
(-0.000306779 -0.0024054 1.07036)
(-0.00092006 -0.00236198 1.07038)
(-0.00153631 -0.00227727 1.07042)
(-0.00216103 -0.00216085 1.07048)
(-0.00282426 -0.00205274 1.07057)
(0.00263195 -0.00263221 1.07062)
(0.00205229 -0.00282387 1.07057)
(0.00146821 -0.0029724 1.07053)
(0.000883757 -0.003072 1.07051)
(0.000295028 -0.00312157 1.07049)
(-0.000295631 -0.00312159 1.07049)
(-0.000884401 -0.00307208 1.07051)
(-0.00146888 -0.00297254 1.07053)
(-0.00205292 -0.00282406 1.07057)
(-0.00263255 -0.00263236 1.07062)
(0.00271979 0.00271992 1.09163)
(0.00212348 0.00291742 1.09155)
(0.00151931 0.00307116 1.09149)
(0.000914491 0.00317456 1.09144)
(0.000305382 0.00322607 1.09142)
(-0.000305636 0.00322603 1.09142)
(-0.000914691 0.00317446 1.09144)
(-0.00151952 0.00307101 1.09148)
(-0.00212372 0.00291721 1.09155)
(-0.00272006 0.00271979 1.09163)
(0.00291727 0.0021236 1.09155)
(0.00223282 0.00223295 1.0914)
(0.00158727 0.00235308 1.0913)
(0.000950201 0.00244099 1.09123)
(0.000316477 0.00248617 1.0912)
(-0.00031675 0.00248613 1.0912)
(-0.00095044 0.00244088 1.09123)
(-0.00158752 0.00235291 1.0913)
(-0.00223306 0.00223277 1.09139)
(-0.00291748 0.00212344 1.09155)
(0.00307099 0.00151942 1.09149)
(0.00235293 0.0015874 1.0913)
(0.00166701 0.00166716 1.09117)
(0.000994484 0.00173062 1.09108)
(0.000330508 0.00176461 1.09105)
(-0.000330825 0.00176457 1.09105)
(-0.000994761 0.0017305 1.09108)
(-0.00166729 0.00166696 1.09117)
(-0.00235321 0.00158721 1.09129)
(-0.00307128 0.00151923 1.09148)
(0.00317439 0.000914622 1.09144)
(0.00244084 0.000950346 1.09123)
(0.00173046 0.000994637 1.09108)
(0.00103172 0.00103188 1.09099)
(0.000342634 0.00105251 1.09094)
(-0.000343025 0.00105246 1.09094)
(-0.00103211 0.00103175 1.09099)
(-0.00173085 0.000994432 1.09108)
(-0.0024412 0.000950132 1.09123)
(-0.00317475 0.000914414 1.09144)
(0.00322589 0.000305528 1.09142)
(0.002486 0.000316639 1.0912)
(0.00176445 0.000330676 1.09105)
(0.00105234 0.000342807 1.09094)
(0.000349438 0.000349619 1.09089)
(-0.000349947 0.000349579 1.09089)
(-0.00105283 0.000342678 1.09094)
(-0.00176493 0.000330504 1.09105)
(-0.00248647 0.000316445 1.0912)
(-0.00322633 0.000305361 1.09142)
(0.00322585 -0.000305483 1.09142)
(0.00248596 -0.000316582 1.0912)
(0.0017644 -0.000330652 1.09105)
(0.00105229 -0.000342846 1.09094)
(0.000349392 -0.00034976 1.09089)
(-0.000349988 -0.000349797 1.09089)
(-0.00105288 -0.000342969 1.09094)
(-0.00176499 -0.000330834 1.09105)
(-0.00248652 -0.00031679 1.0912)
(-0.00322637 -0.000305659 1.09142)
(0.00317427 -0.000914543 1.09144)
(0.0024407 -0.000950275 1.09123)
(0.00173032 -0.000994595 1.09108)
(0.00103157 -0.00103194 1.09099)
(0.000342483 -0.00105266 1.09094)
(-0.000343169 -0.0010527 1.09094)
(-0.00103226 -0.00103207 1.09099)
(-0.00173101 -0.000994829 1.09109)
(-0.00244136 -0.000950528 1.09123)
(-0.00317488 -0.000914779 1.09144)
(0.00307081 -0.00151938 1.09148)
(0.00235272 -0.00158736 1.0913)
(0.00166677 -0.00166714 1.09117)
(0.000994239 -0.00173069 1.09108)
(0.0003303 -0.00176478 1.09105)
(-0.000331037 -0.00176482 1.09105)
(-0.000995019 -0.00173083 1.09109)
(-0.00166756 -0.00166737 1.09117)
(-0.00235345 -0.00158762 1.0913)
(-0.0030715 -0.00151964 1.09148)
(0.00291701 -0.00212357 1.09155)
(0.00223256 -0.00223291 1.09139)
(0.00158701 -0.00235306 1.09129)
(0.000949933 -0.00244105 1.09123)
(0.000316236 -0.00248631 1.0912)
(-0.000316993 -0.00248635 1.0912)
(-0.000950718 -0.00244118 1.09123)
(-0.0015878 -0.00235326 1.0913)
(-0.00223336 -0.00223317 1.0914)
(-0.00291777 -0.0021238 1.09155)
(0.00271959 -0.00271991 1.09163)
(0.00212324 -0.00291733 1.09155)
(0.00151904 -0.00307112 1.09148)
(0.00091422 -0.00317459 1.09144)
(0.000305161 -0.00322616 1.09142)
(-0.000305854 -0.00322619 1.09142)
(-0.000914965 -0.00317468 1.09144)
(-0.00151982 -0.00307129 1.09148)
(-0.00212398 -0.00291756 1.09155)
(-0.00272029 -0.00272009 1.09163)
(0.00272653 0.0027266 1.11302)
(0.00213136 0.00292374 1.11289)
(0.00152506 0.00307788 1.1128)
(0.000917869 0.00318185 1.11274)
(0.000306524 0.0032337 1.11271)
(-0.000306695 0.00323365 1.11271)
(-0.000917979 0.00318173 1.11274)
(-0.00152519 0.0030777 1.1128)
(-0.00213152 0.00292349 1.11289)
(-0.00272673 0.00272646 1.11302)
(0.00292363 0.00213142 1.11289)
(0.00223844 0.00223853 1.11267)
(0.00159137 0.00235852 1.11252)
(0.000952494 0.00244684 1.11243)
(0.000317238 0.00249232 1.11239)
(-0.000317431 0.00249227 1.11239)
(-0.000952648 0.0024467 1.11243)
(-0.00159154 0.00235832 1.11252)
(-0.00223861 0.00223831 1.11267)
(-0.00292376 0.00213123 1.11289)
(0.00307776 0.00152511 1.1128)
(0.00235842 0.00159144 1.11252)
(0.00167084 0.00167093 1.11233)
(0.000996489 0.00173463 1.11221)
(0.000331144 0.00176887 1.11215)
(-0.000331388 0.00176882 1.11215)
(-0.000996689 0.0017345 1.11221)
(-0.00167104 0.0016707 1.11233)
(-0.00235864 0.00159122 1.11252)
(-0.00307798 0.00152489 1.1128)
(0.00318172 0.000917933 1.11274)
(0.00244673 0.000952575 1.11243)
(0.00173454 0.000996581 1.11221)
(0.00103382 0.00103392 1.11207)
(0.000343282 0.00105468 1.112)
(-0.000343618 0.00105463 1.112)
(-0.00103415 0.00103377 1.11207)
(-0.00173487 0.000996341 1.11221)
(-0.00244705 0.000952325 1.11243)
(-0.00318203 0.000917691 1.11274)
(0.00323356 0.000306604 1.11271)
(0.0024922 0.000317335 1.11239)
(0.00176876 0.000331248 1.11215)
(0.00105457 0.000343395 1.112)
(0.000350118 0.000350243 1.11193)
(-0.000350597 0.000350195 1.11193)
(-0.00105503 0.000343245 1.112)
(-0.00176921 0.000331048 1.11215)
(-0.00249264 0.00031711 1.11239)
(-0.00323398 0.000306411 1.11271)
(0.00323351 -0.000306611 1.11271)
(0.00249214 -0.000317329 1.11239)
(0.0017687 -0.000331281 1.11215)
(0.00105451 -0.000343501 1.112)
(0.00035006 -0.000350466 1.11193)
(-0.000350649 -0.000350508 1.11193)
(-0.00105509 -0.000343643 1.112)
(-0.00176929 -0.00033149 1.11215)
(-0.00249271 -0.000317567 1.11239)
(-0.00323403 -0.000306809 1.11271)
(0.00318157 -0.000917901 1.11274)
(0.00244656 -0.000952552 1.11243)
(0.00173436 -0.00099659 1.11221)
(0.00103363 -0.00103404 1.11207)
(0.000343097 -0.00105491 1.112)
(-0.000343798 -0.00105496 1.112)
(-0.00103434 -0.0010342 1.11207)
(-0.00173508 -0.000996859 1.11221)
(-0.00244725 -0.00095284 1.11243)
(-0.0031822 -0.000918167 1.11274)
(0.00307754 -0.00152511 1.1128)
(0.00235816 -0.00159145 1.11252)
(0.00167055 -0.00167096 1.11233)
(0.00099619 -0.00173478 1.11221)
(0.000330886 -0.00176911 1.11215)
(-0.000331654 -0.00176917 1.11215)
(-0.00099701 -0.00173494 1.11221)
(-0.00167138 -0.00167123 1.11233)
(-0.00235895 -0.00159174 1.11252)
(-0.00307826 -0.00152541 1.1128)
(0.00292331 -0.00213144 1.11289)
(0.00223813 -0.00223853 1.11267)
(0.00159106 -0.00235856 1.11252)
(0.000952165 -0.00244695 1.11243)
(0.000316938 -0.00249253 1.11239)
(-0.000317736 -0.00249258 1.11239)
(-0.000952997 -0.0024471 1.11243)
(-0.00159189 -0.00235879 1.11252)
(-0.00223899 -0.00223882 1.11267)
(-0.00292413 -0.00213169 1.11289)
(0.00272628 -0.00272665 1.11302)
(0.00213106 -0.00292368 1.11289)
(0.00152473 -0.00307788 1.1128)
(0.000917532 -0.00318193 1.11274)
(0.000306243 -0.00323385 1.11271)
(-0.000306975 -0.00323389 1.11271)
(-0.000918324 -0.00318204 1.11274)
(-0.00152556 -0.00307808 1.1128)
(-0.00213185 -0.00292395 1.11289)
(-0.00272703 -0.00272686 1.11302)
(0.0026734 0.00267338 1.13422)
(0.00209222 0.00286562 1.13405)
(0.00149716 0.00301649 1.13393)
(0.000901021 0.00311848 1.13384)
(0.000300935 0.00316938 1.1338)
(-0.000300954 0.00316933 1.1338)
(-0.000900973 0.00311834 1.13384)
(-0.00149714 0.00301628 1.13392)
(-0.00209223 0.00286533 1.13405)
(-0.00267346 0.00267321 1.13422)
(0.00286561 0.00209218 1.13405)
(0.00219465 0.00219463 1.13375)
(0.00156032 0.00231163 1.13355)
(0.000933775 0.00239817 1.13342)
(0.000311025 0.00244282 1.13336)
(-0.000311066 0.00244277 1.13336)
(-0.000933773 0.00239802 1.13342)
(-0.00156034 0.00231141 1.13354)
(-0.00219467 0.00219439 1.13374)
(-0.00286559 0.00209197 1.13405)
(0.00301645 0.0014971 1.13393)
(0.00231163 0.00156028 1.13355)
(0.0016376 0.00163758 1.13328)
(0.000976421 0.00169997 1.13312)
(0.000324471 0.00173358 1.13304)
(-0.000324568 0.00173353 1.13304)
(-0.00097647 0.00169981 1.13312)
(-0.00163766 0.00163733 1.13328)
(-0.00231171 0.00156004 1.13354)
(-0.00301654 0.00149686 1.13392)
(0.00311843 0.000900972 1.13384)
(0.00239816 0.000933744 1.13342)
(0.00169997 0.000976403 1.13312)
(0.00101291 0.00101291 1.13293)
(0.000336319 0.00103328 1.13283)
(-0.000336524 0.00103322 1.13283)
(-0.00101311 0.00101274 1.13293)
(-0.00170018 0.000976138 1.13312)
(-0.00239835 0.00093347 1.13342)
(-0.00311863 0.000900708 1.13384)
(0.00316932 0.000300899 1.1338)
(0.00244279 0.000311008 1.13336)
(0.00173357 0.000324462 1.13304)
(0.00103327 0.000336323 1.13283)
(0.000343013 0.000343034 1.13273)
(-0.000343383 0.000342982 1.13273)
(-0.00103362 0.000336159 1.13283)
(-0.00173392 0.000324243 1.13304)
(-0.00244313 0.000310764 1.13336)
(-0.00316965 0.000300693 1.1338)
(0.00316927 -0.000300988 1.1338)
(0.00244272 -0.000311081 1.13336)
(0.0017335 -0.000324577 1.13304)
(0.0010332 -0.000336517 1.13283)
(0.000342945 -0.000343356 1.13273)
(-0.000343446 -0.000343402 1.13273)
(-0.00103369 -0.000336671 1.13283)
(-0.00173401 -0.000324802 1.13304)
(-0.00244322 -0.000311336 1.13336)
(-0.00316972 -0.000301196 1.1338)
(0.00311826 -0.000901016 1.13384)
(0.00239796 -0.000933798 1.13342)
(0.00169977 -0.000976489 1.13312)
(0.0010127 -0.00101312 1.13293)